ANIMSTEPS 100
CRYSTAL 100
PRIMVEC 1
27.27200  0.00000  0.00000
0.00000 32.28600  0.00000
0.00000  0.00000 27.87800
PRIMCOORD 1
260 1
C   19.958    3.374    5.725
C   20.519    1.929    5.477
C   20.045    3.537    4.151
C   19.871    1.986    4.057
C   22.042    1.958    5.339
C   21.452    3.909    3.777
C   22.481    2.866    4.143
C   20.759    4.340    6.593
C   18.508    3.347    6.211
C   21.772    5.069    3.183
H   20.188    1.149    6.170
H   19.301    4.187    3.680
H   20.386    1.468    3.244
H   18.825    1.688    4.057
H   22.426    0.940    5.174
H   22.498    2.312    6.269
H   22.611    2.221    3.256
H   23.461    3.324    4.323
H   20.304    5.342    6.560
H   20.763    4.009    7.641
H   21.798    4.453    6.264
H   18.053    4.354    6.148
H   18.454    3.026    7.260
H   17.873    2.667    5.634
H   22.794    5.341    2.964
H   20.997    5.783    2.906
C   28.077    3.040    3.933
C   27.302    2.407    2.724
C   26.666    3.069    4.654
C   26.267    1.854    3.754
C   26.641    3.496    1.877
C   25.917    4.293    4.208
C   25.627    4.330    2.727
C   28.809    4.364    3.732
C   29.026    2.036    4.590
C   25.549    5.275    5.046
H   27.856    1.692    2.107
H   26.665    2.950    5.742
H   25.223    1.783    3.434
H   26.567    0.904    4.188
H   26.108    3.043    1.028
H   27.404    4.153    1.447
H   24.624    3.891    2.587
H   25.551    5.363    2.365
H   29.185    4.736    4.698
H   29.673    4.233    3.066
H   28.170    5.149    3.316
H   29.377    2.410    5.571
H   29.913    1.872    3.965
H   28.567    1.057    4.760
H   25.053    6.171    4.701
H   25.750    5.196    6.114
C   23.442   17.654   17.096
C   23.421   18.859   16.090
C   24.585   18.465   17.839
C   23.938   19.763   17.255
C   24.523   18.706   15.040
C   25.894   18.201   17.152
C   25.935   18.654   15.712
C   23.775   16.260   16.573
C   22.164   17.586   17.932
C   26.934   17.604   17.756
H   22.454   19.100   15.635
H   24.649   18.343   18.925
H   24.607   20.588   16.996
H   23.137   20.143   17.884
H   24.493   19.551   14.336
H   24.353   17.803   14.446
H   26.350   19.677   15.711
H   26.637   18.048   15.127
H   23.879   15.557   17.415
H   22.970   15.886   15.925
H   24.714   16.224   16.011
H   22.290   16.897   18.789
H   21.325   17.212   17.330
H   21.861   18.557   18.337
H   27.852   17.379   17.233
H   26.876   17.320   18.806
C   16.215   30.068   24.448
C   15.509   29.673   25.794
C   16.172   28.517   24.123
C   14.916   28.435   25.049
C   16.536   29.200   26.824
C   17.337   27.846   24.795
C   17.323   27.954   26.301
C   17.577   30.754   24.501
C   15.287   30.863   23.530
C   18.313   27.219   24.119
H   14.815   30.408   26.217
H   16.078   28.236   23.069
H   14.773   27.517   25.627
H   13.995   28.661   24.516
H   16.032   28.935   27.765
H   17.229   30.012   27.065
H   16.819   27.049   26.681
H   18.341   27.921   26.708
H   17.993   30.842   23.485
H   17.485   31.768   24.914
H   18.312   30.204   25.099
H   15.704   30.923   22.506
H   15.164   31.891   23.895
H   14.285   30.429   23.448
H   19.168   26.783   24.615
H   18.270   27.135   23.034
C   13.124    4.673   17.103
C   13.022    3.442   18.072
C   13.304    3.591   15.958
C   12.489    2.610   16.862
C   14.415    2.940   18.456
C   14.743    3.160   15.919
C   15.223    2.502   17.190
C   14.242    5.690   17.313
C   11.791    5.411   16.977
C   15.539    3.353   14.855
H   12.376    3.560   18.948
H   12.917    3.850   14.968
H   12.752    1.549   16.823
H   11.416    2.712   16.718
H   14.333    2.084   19.142
H   14.959    3.719   19.000
H   15.085    1.415   17.059
H   16.301    2.649   17.329
H   14.257    6.410   16.480
H   14.082    6.256   18.241
H   15.236    5.232   17.355
H   11.809    6.113   16.121
H   11.584    5.999   17.880
H   10.939    4.739   16.828
H   16.584    3.080   14.860
H   15.147    3.803   13.944
C    4.905   10.960    9.598
C    6.266   10.180    9.666
C    5.805   12.266    9.573
C    6.926   11.388    8.928
C    6.783   10.123   11.105
C    6.189   12.618   10.982
C    7.013   11.561   11.677
C    3.902   10.801   10.736
C    4.190   10.742    8.264
C    5.824   13.764   11.578
H    6.292    9.197    9.185
H    5.413   13.124    9.018
H    7.963   11.629    9.178
H    6.831   11.327    7.846
H    7.732    9.567   11.144
H    6.078    9.573   11.737
H    8.073   11.825   11.516
H    6.861   11.592   12.762
H    3.068   11.508   10.605
H    3.481    9.785   10.744
H    4.336   11.000   11.722
H    3.371   11.475    8.132
H    3.744    9.740    8.220
H    4.854   10.837    7.398
H    6.069   13.981   12.608
H    5.256   14.517   11.032
C   16.314    3.403    1.861
C   14.841    3.848    2.173
C   16.681    4.119    3.227
C   15.217    3.820    3.689
C   14.610    5.296    1.736
C   16.838    5.592    2.978
C   15.584    6.269    2.479
C   16.984    3.904    0.585
C   16.484    1.886    1.955
C   17.994    6.250    3.166
H   14.044    3.184    1.821
H   17.516    3.699    3.796
H   14.734    4.550    4.343
H   15.119    2.831    4.131
H   13.574    5.594    1.950
H   14.739    5.387    0.652
H   15.059    6.662    3.367
H   15.825    7.145    1.865
H   18.047    3.615    0.580
H   16.513    3.458   -0.302
H   16.951    4.994    0.481
H   17.556    1.611    1.975
H   16.032    1.389    1.087
H   16.020    1.456    2.849
H   18.102    7.300    2.936
H   18.869    5.732    3.558
C   11.570   27.496   10.960
C   10.054   27.908   10.951
C   11.824   28.918   10.305
C   10.520   29.397   11.023
C    9.429   27.638    9.581
C   11.579   28.823    8.826
C   10.162   28.447    8.461
C   12.005   26.258   10.181
C   12.132   27.419   12.379
C   12.533   29.040    7.907
H    9.436   27.516   11.766
H   12.774   29.407   10.542
H    9.907   30.144   10.511
H   10.710   29.733   12.040
H    8.366   27.922    9.589
H    9.461   26.567    9.357
H    9.611   29.391    8.306
H   10.129   27.923    7.498
H   13.103   26.183   10.176
H   11.609   25.346   10.649
H   11.683   26.274    9.134
H   13.238   27.370   12.363
H   11.771   26.519   12.894
H   11.854   28.278   13.000
H   12.352   28.921    6.849
H   13.536   29.341    8.210
C   13.617   18.495   18.715
C   13.469   19.605   17.614
C   15.124   18.977   18.813
C   14.628   20.376   18.322
C   13.957   19.090   16.259
C   15.918   18.314   17.724
C   15.461   18.666   16.328
C   13.351   17.040   18.339
C   12.830   18.839   19.980
C   16.936   17.473   17.965
H   12.490   20.091   17.537
H   15.605   18.895   19.792
H   15.305   20.960   17.692
H   14.282   21.002   19.142
H   13.841   19.871   15.494
H   13.341   18.246   15.933
H   16.072   19.524   15.999
H   15.684   17.855   15.624
H   13.624   16.379   19.177
H   12.284   16.883   18.125
H   13.929   16.708   17.470
H   13.133   18.185   20.821
H   11.754   18.694   19.822
H   12.971   19.875   20.307
H   17.466   16.968   17.171
H   17.257   17.269   18.986
C   12.255   21.842    3.777
C   11.551   20.756    4.666
C   11.992   20.842    2.576
C   10.770   20.305    3.391
C   12.542   19.661    5.066
C   13.079   19.805    2.559
C   13.135   18.952    3.804
C   13.698   22.230    4.086
C   11.411   23.110    3.652
C   13.936   19.656    1.536
H   10.980   21.122    5.526
H   11.822   21.287    1.591
H   10.526   19.244    3.296
H    9.870   20.891    3.217
H   12.042   18.910    5.695
H   13.347   20.085    5.674
H   12.527   18.053    3.602
H   14.153   18.587    3.987
H   14.086   22.896    3.300
H   13.759   22.770    5.042
H   14.374   21.369    4.134
H   11.794   23.760    2.841
H   11.441   23.693    4.582
H   10.357   22.907    3.434
H   14.742   18.937    1.560
H   13.843   20.271    0.641
PRIMVEC 2
27.27200  0.00000  0.00000
0.00000 32.28600  0.00000
0.00000  0.00000 27.87800
PRIMCOORD 2
260 1
C   20.122    4.003   19.109
C   19.866    5.272   18.221
C   21.656    4.255   18.796
C   21.293    5.766   18.620
C   19.855    4.900   16.737
C   21.984    3.657   17.457
C   21.221    4.269   16.307
C   19.513    2.669   18.687
C   19.796    4.261   20.580
C   22.867    2.659   17.295
H   19.005    5.893   18.491
H   22.372    3.965   19.571
H   21.856    6.338   17.877
H   21.306    6.305   19.564
H   19.666    5.794   16.125
H   19.035    4.205   16.529
H   21.853    5.075   15.897
H   21.092    3.548   15.491
H   19.892    1.861   19.332
H   18.419    2.692   18.789
H   19.756    2.392   17.656
H   20.205    3.456   21.221
H   18.710    4.289   20.740
H   20.201    5.209   20.951
H   23.056    2.208   16.332
H   23.421    2.265   18.147
C   28.077    3.023    3.910
C   27.275    2.426    2.700
C   26.668    3.116    4.631
C   26.215    1.920    3.731
C   26.663    3.544    1.854
C   25.976    4.372    4.185
C   25.687    4.422    2.704
C   28.868    4.312    3.709
C   28.980    1.978    4.567
C   25.653    5.369    5.023
H   27.796    1.686    2.084
H   26.662    2.997    5.719
H   25.170    1.896    3.411
H   26.473    0.957    4.165
H   26.111    3.115    1.004
H   27.455    4.166    1.423
H   24.666    4.028    2.564
H   25.658    5.457    2.342
H   29.261    4.668    4.675
H   29.725    4.143    3.043
H   28.264    5.126    3.293
H   29.347    2.335    5.548
H   29.859    1.773    3.941
H   28.477    1.020    4.737
H   25.197    6.287    4.678
H   25.849    5.282    6.091
C   10.677   11.685   25.294
C   10.171   12.407   23.995
C   11.442   13.041   25.592
C   10.335   13.761   24.757
C   11.220   12.321   22.885
C   12.735   13.048   24.827
C   12.562   12.992   23.328
C   11.502   10.409   25.157
C    9.543   11.445   26.291
C   13.939   13.088   25.419
H    9.174   12.128   23.636
H   11.577   13.310   26.645
H   10.631   14.637   24.173
H    9.465   14.017   25.358
H   10.852   12.822   21.978
H   11.393   11.275   22.611
H   12.555   14.035   22.968
H   13.427   12.518   22.848
H   11.889   10.103   26.142
H   10.884    9.586   24.771
H   12.369   10.526   24.498
H    9.945   11.164   27.284
H    8.895   10.625   25.955
H    8.904   12.322   26.436
H   14.860   13.045   24.855
H   14.022   13.160   26.503
C   17.384   30.068   24.640
C   17.369   29.673   26.159
C   17.117   28.528   24.372
C   16.436   28.480   25.778
C   18.733   29.132   26.590
C   18.426   27.792   24.421
C   19.122   27.865   25.759
C   18.646   30.691   24.050
C   16.176   30.925   24.261
C   18.941   27.137   23.368
H   16.991   30.428   26.858
H   16.528   28.276   23.485
H   16.534   27.557   26.356
H   15.386   28.760   25.737
H   18.714   28.867   27.658
H   19.498   29.907   26.479
H   18.809   26.974   26.331
H   20.209   27.777   25.644
H   18.544   30.785   22.957
H   18.808   31.699   24.457
H   19.546   30.096   24.235
H   16.069   30.990   23.161
H   16.289   31.948   24.641
H   15.232   30.537   24.657
H   19.906   26.653   23.407
H   18.393   27.081   22.429
C   14.105    4.673   17.373
C   14.204    3.297   18.124
C   13.936    3.797   16.063
C   13.340    2.679   16.979
C   15.626    2.739   18.043
C   15.295    3.379   15.578
C   16.058    2.518   16.556
C   15.283    5.640   17.444
C   12.819    5.421   17.722
C   15.796    3.747   14.388
H   13.812    3.268   19.146
H   13.318    4.219   15.264
H   13.537    1.640   16.701
H   12.272    2.804   17.139
H   15.686    1.780   18.579
H   16.325    3.416   18.544
H   15.844    1.468   16.292
H   17.141    2.640   16.429
H   15.113    6.490   16.764
H   15.394    6.043   18.461
H   16.234    5.182   17.149
H   12.646    6.257   17.017
H   12.878    5.851   18.731
H   11.929    4.784   17.696
H   16.795    3.477   14.076
H   15.202    4.343   13.697
C   24.774   27.258    9.698
C   24.660   28.521   10.623
C   23.823   28.056    8.712
C   24.403   29.367    9.335
C   23.378   28.466   11.456
C   22.399   27.874    9.157
C   22.113   28.415   10.537
C   24.295   25.909   10.225
C   26.181   27.100    9.120
C   21.465   27.272    8.403
H   25.535   28.760   11.237
H   23.954   27.870    7.641
H   23.732   30.226    9.420
H   25.321   29.684    8.846
H   23.312   29.350   12.107
H   23.398   27.596   12.120
H   21.747   29.448   10.406
H   21.291   27.867   11.014
H   24.318   25.160    9.418
H   24.951   25.551   11.031
H   23.267   25.936   10.603
H   26.187   26.364    8.293
H   26.879   26.739    9.886
H   26.593   28.036    8.726
H   20.458   27.108    8.758
H   21.703   26.923    7.399
C    9.402   11.876   12.112
C   10.200   13.018   11.389
C   10.756   11.057   12.031
C   11.499   12.432   12.028
C   10.229   12.783    9.877
C   10.862   10.425   10.672
C   10.910   11.417    9.535
C    8.167   11.292   11.432
C    9.052   12.249   13.553
C   10.897    9.097   10.480
H    9.916   14.047   11.636
H   10.952   10.346   12.840
H   12.425   12.506   11.450
H   11.682   12.804   13.034
H   10.783   13.593    9.380
H    9.213   12.812    9.472
H   11.976   11.611    9.325
H   10.501   10.983    8.614
H    7.803   10.420   11.998
H    7.354   12.032   11.400
H    8.360   10.949   10.410
H    8.713   11.360   14.118
H    8.239   12.986   13.579
H    9.895   12.681   14.103
H   10.926    8.658    9.493
H   10.893    8.414   11.329
C   11.857   27.892   11.078
C   10.495   28.660   10.935
C   12.437   29.006   10.111
C   11.324   29.956   10.662
C    9.772   28.243    9.653
C   12.121   28.631    8.691
C   10.643   28.551    8.391
C   11.936   26.437   10.626
C   12.434   28.012   12.489
C   13.065   28.375    7.771
H    9.828   28.642   11.803
H   13.488   29.280   10.248
H   10.901   30.692    9.973
H   11.630   30.463   11.574
H    8.816   28.781    9.567
H    9.524   27.178    9.690
H   10.342   29.540    8.003
H   10.443   27.841    7.580
H   12.979   26.086   10.667
H   11.341   25.792   11.288
H   11.590   26.286    9.598
H   13.490   27.682   12.511
H   11.876   27.381   13.193
H   12.404   29.034   12.880
H   12.820   28.061    6.767
H   14.121   28.475    8.018
C   23.079   11.259   24.985
C   24.320   10.337   25.257
C   23.923   11.811   23.762
C   24.645   10.425   23.732
C   25.391   11.092   26.047
C   24.873   12.863   24.261
C   25.881   12.354   25.263
C   22.642   12.248   26.061
C   21.865   10.457   24.517
C   24.824   14.144   23.865
H   24.113    9.352   25.690
H   23.360   12.139   22.882
H   25.697   10.409   23.437
H   24.103    9.691   23.140
H   26.252   10.434   26.240
H   25.000   11.383   27.027
H   26.783   12.071   24.693
H   26.199   13.152   25.944
H   21.850   12.906   25.669
H   22.233   11.718   26.933
H   23.455   12.898   26.403
H   21.087   11.126   24.101
H   21.413    9.909   25.354
H   22.107    9.720   23.743
H   25.485   14.897   24.270
H   24.102   14.466   23.116
C   12.911   21.361    3.829
C   12.796   19.956    4.521
C   13.193   20.539    2.503
C   12.361   19.377    3.137
C   14.181   19.418    4.883
C   14.646   20.157    2.468
C   15.074   19.264    3.608
C   13.980   22.338    4.310
C   11.563   22.080    3.771
C   15.494   20.580    1.517
H   12.097   19.880    5.361
H   12.855   20.986    1.563
H   12.662   18.352    2.901
H   11.295   19.483    2.949
H   14.089   18.438    5.375
H   14.666   20.081    5.606
H   14.981   18.223    3.251
H   16.137   19.403    3.840
H   14.017   23.213    3.642
H   13.748   22.699    5.322
H   14.985   21.903    4.321
H   11.606   22.942    3.078
H   11.285   22.467    4.760
H   10.744   21.434    3.437
H   16.546   20.334    1.533
H   15.139   21.197    0.692
PRIMVEC 3
27.27200  0.00000  0.00000
0.00000 32.28600  0.00000
0.00000  0.00000 27.87800
PRIMCOORD 3
260 1
C   20.122    4.189   19.109
C   19.663    5.478   18.339
C   21.538    4.458   18.448
C   21.144    5.970   18.401
C   19.301    5.142   16.891
C   21.540    3.895   17.055
C   20.526    4.530   16.134
C   19.430    2.862   18.810
C   20.154    4.410   20.622
C   22.359    2.906   16.664
H   18.890    6.087   18.821
H   22.417    4.154   19.024
H   21.515    6.564   17.561
H   21.380    6.487   19.328
H   18.972    6.049   16.363
H   18.455    4.447   16.866
H   21.043    5.349   15.606
H   20.207    3.828   15.354
H   19.952    2.041   19.327
H   18.392    2.877   19.169
H   19.423    2.612   17.744
H   20.703    3.592   21.127
H   19.137    4.428   21.034
H   20.635    5.351   20.910
H   22.314    2.480   15.672
H   23.099    2.495   17.350
C   27.019    3.023    3.910
C   26.348    3.165    2.498
C   26.292    4.390    4.249
C   25.216    3.993    3.186
C   27.174    4.087    1.598
C   27.123    5.526    3.724
C   27.304    5.514    2.225
C   28.541    2.976    4.005
C   26.430    1.857    4.706
C   27.669    6.463    4.516
H   26.076    2.235    1.988
H   25.984    4.541    5.289
H   24.756    4.799    2.607
H   24.431    3.370    3.607
H   26.700    4.173    0.609
H   28.166    3.656    1.428
H   26.504    6.146    1.802
H   28.246    5.996    1.937
H   28.854    3.009    5.060
H   28.929    2.043    3.571
H   29.029    3.818    3.502
H   26.730    1.916    5.770
H   26.790    0.897    4.315
H   25.336    1.826    4.678
H   28.303    7.246    4.126
H   27.489    6.456    5.590
C   10.197   11.685   25.668
C    9.863   12.536   24.392
C   11.326   12.766   25.934
C   10.433   13.780   25.146
C   10.799   12.170   23.239
C   12.535   12.417   25.114
C   12.292   12.430   23.624
C   10.622   10.229   25.496
C    9.083   11.763   26.713
C   13.725   12.108   25.655
H    8.814   12.554   24.076
H   11.573   12.974   26.979
H   10.941   14.543   24.550
H    9.697   14.263   25.784
H   10.551   12.766   22.348
H   10.658   11.122   22.957
H   12.566   13.437   23.264
H   12.968   11.737   23.108
H   10.946    9.815   26.464
H    9.781    9.619   25.137
H   11.459   10.105   24.801
H    9.429   11.368   27.687
H    8.216   11.163   26.405
H    8.724   12.783   26.885
H   14.572   11.814   25.052
H   13.869   12.141   26.734
C   17.384   29.563   24.640
C   17.369   29.292   26.186
C   17.117   28.007   24.497
C   16.436   28.072   25.902
C   18.733   28.787   26.659
C   18.426   27.277   24.605
C   19.122   27.457   25.933
C   18.646   30.137   24.001
C   16.176   30.387   24.193
C   18.941   26.540   23.608
H   16.991   30.100   26.821
H   16.528   27.685   23.632
H   16.534   27.198   26.553
H   15.386   28.347   25.839
H   18.714   28.609   27.745
H   19.498   29.550   26.486
H   18.809   26.615   26.574
H   20.209   27.360   25.825
H   18.544   30.143   22.905
H   18.808   31.174   24.327
H   19.546   29.559   24.234
H   16.069   30.363   23.092
H   16.289   31.437   24.490
H   15.232   30.032   24.619
H   19.906   26.060   23.686
H   18.393   26.408   22.676
C   14.131    4.618   17.263
C   14.229    3.322   18.145
C   13.962    3.618   16.044
C   13.365    2.595   17.065
C   15.651    2.759   18.119
C   15.321    3.155   15.603
C   16.084    2.393   16.661
C   15.309    5.588   17.239
C   12.844    5.397   17.537
C   15.822    3.405   14.383
H   13.837    3.393   19.165
H   13.343    3.960   15.208
H   13.562    1.534   16.891
H   12.297    2.735   17.213
H   15.712    1.857   18.746
H   16.351    3.481   18.551
H   15.869    1.323   16.500
H   17.166    2.503   16.522
H   15.139    6.367   16.479
H   15.420    6.088   18.211
H   16.259    5.103   16.991
H   12.671    6.159   16.753
H   12.904    5.923   18.499
H   11.954    4.760   17.574
H   16.820    3.106   14.098
H   15.227    3.931   13.637
C   20.068   19.090    4.085
C   19.630   18.654    2.642
C   18.515   19.243    4.368
C   18.285   18.160    3.264
C   19.363   19.879    1.765
C   18.059   20.582    3.862
C   18.229   20.768    2.374
C   20.953   20.321    4.250
C   20.673   17.927    4.873
C   17.556   21.537    4.662
H   20.270   17.922    2.136
H   18.178   19.043    5.390
H   17.383   18.247    2.652
H   18.347   17.149    3.659
H   19.066   19.563    0.754
H   20.281   20.465    1.648
H   17.275   20.471    1.904
H   18.367   21.826    2.121
H   21.059   20.569    5.318
H   21.959   20.133    3.850
H   20.548   21.211    3.756
H   20.750   18.178    5.948
H   21.686   17.699    4.515
H   20.089   17.004    4.796
H   17.277   22.511    4.289
H   17.420   21.353    5.727
C   26.361   20.372   16.897
C   25.970   19.188   17.852
C   24.835   20.788   17.002
C   24.820   20.091   18.401
C   25.367   18.030   17.056
C   24.040   19.971   16.024
C   24.083   18.485   16.287
C   26.926   20.053   15.516
C   27.272   21.386   17.590
C   23.361   20.509   14.998
H   26.742   18.846   18.549
H   24.610   21.857   16.935
H   23.894   19.599   18.711
H   25.148   20.757   19.197
H   25.104   17.203   17.732
H   26.106   17.630   16.353
H   23.207   18.247   16.917
H   23.945   17.915   15.360
H   27.023   20.978   14.926
H   27.926   19.604   15.599
H   26.291   19.373   14.938
H   27.341   22.320   17.001
H   28.290   20.988   17.695
H   26.929   21.659   18.594
H   22.833   19.902   14.276
H   23.329   21.589   14.860
C   12.661   27.757   11.121
C   11.300   28.525   10.978
C   13.242   28.871   10.155
C   12.128   29.821   10.706
C   10.576   28.108    9.697
C   12.925   28.496    8.735
C   11.448   28.416    8.435
C   12.741   26.301   10.670
C   13.238   27.877   12.532
C   13.869   28.240    7.815
H   10.633   28.506   11.847
H   14.292   29.145   10.292
H   11.705   30.556   10.016
H   12.434   30.328   11.618
H    9.620   28.645    9.610
H   10.328   27.042    9.734
H   11.147   29.405    8.047
H   11.247   27.706    7.623
H   13.784   25.951   10.711
H   12.146   25.656   11.332
H   12.395   26.151    9.641
H   14.294   27.546   12.555
H   12.681   27.245   13.237
H   13.209   28.899   12.924
H   13.624   27.925    6.811
H   14.925   28.339    8.062
C   23.045   11.266   25.178
C   24.298   10.373   25.490
C   23.882   11.776   23.932
C   24.622   10.399   23.963
C   25.358   11.175   26.246
C   24.818   12.860   24.385
C   25.833   12.408   25.409
C   22.594   12.296   26.210
C   21.841   10.428   24.745
C   24.754   14.122   23.933
H   24.104    9.405   25.965
H   23.316   12.057   23.039
H   25.675   10.384   23.669
H   24.090    9.632   23.403
H   26.228   10.538   26.468
H   24.963   11.504   27.213
H   26.738   12.113   24.851
H   26.139   13.240   26.054
H   21.795   12.925   25.790
H   22.192   11.799   27.104
H   23.398   12.970   26.524
H   21.056   11.069   24.301
H   21.396    9.912   25.606
H   22.094    9.662   24.005
H   25.404   14.901   24.305
H   24.028   14.402   23.171
C   12.188   21.211    3.829
C   11.556   20.013    4.621
C   12.142   20.238    2.578
C   10.936   19.527    3.272
C   12.638   19.027    5.064
C   13.346   19.340    2.616
C   13.409   18.448    3.832
C   13.545   21.754    4.267
C   11.208   22.374    3.676
C   14.290   19.337    1.662
H   10.879   20.271    5.443
H   11.996   20.702    1.597
H   10.831   18.449    3.123
H    9.987   20.008    3.045
H   12.186   18.196    5.626
H   13.337   19.518    5.750
H   12.933   17.492    3.552
H   14.446   18.199    4.086
H   13.908   22.495    3.537
H   13.466   22.257    5.241
H   14.315   20.978    4.342
H   11.571   23.098    2.921
H   11.095   22.917    4.624
H   10.207   22.056    3.366
H   15.174   18.719    1.729
H   14.193   19.973    0.783
PRIMVEC 4
27.27200  0.00000  0.00000
0.00000 32.28600  0.00000
0.00000  0.00000 27.87800
PRIMCOORD 4
260 1
C   20.239    3.883   18.598
C   19.857    5.260   17.949
C   21.695    4.174   18.043
C   21.345    5.694   18.139
C   19.565    5.092   16.457
C   21.757    3.761   16.600
C   20.812    4.524   15.702
C   19.529    2.619   18.123
C   20.195    3.941   20.125
C   22.569    2.793   16.147
H   19.077    5.840   18.453
H   22.534    3.781   18.627
H   21.778    6.361   17.387
H   21.545    6.102   19.127
H   19.290    6.060   16.014
H   18.704    4.432   16.314
H   21.380    5.377   15.292
H   20.518    3.919   14.835
H   19.998    1.731   18.575
H   18.473    2.629   18.428
H   19.572    2.483   17.037
H   20.693    3.056   20.567
H   19.158    3.948   20.485
H   20.685    4.829   20.537
H   22.567    2.476   15.114
H   23.260    2.288   16.821
C   19.202    5.043    4.024
C   19.088    3.606    3.402
C   17.767    4.753    4.631
C   18.139    3.235    4.586
C   18.283    3.644    2.101
C   16.728    5.048    3.586
C   16.837    4.186    2.351
C   19.360    6.242    3.094
C   20.273    5.108    5.113
C   15.793    6.000    3.729
H   20.022    3.046    3.287
H   17.535    5.217    5.595
H   17.334    2.523    4.384
H   18.676    2.916    5.475
H   18.216    2.634    1.669
H   18.797    4.263    1.359
H   16.171    3.320    2.505
H   16.445    4.709    1.469
H   19.292    7.178    3.671
H   20.342    6.224    2.600
H   18.587    6.290    2.319
H   20.179    6.041    5.703
H   21.279    5.099    4.673
H   20.223    4.272    5.818
H   15.083    6.232    2.947
H   15.727    6.580    4.649
C   15.888   12.760   25.075
C   17.108   12.866   24.092
C   15.922   11.210   24.741
C   17.448   11.385   24.450
C   16.628   12.939   22.642
C   15.187   10.974   23.452
C   15.801   11.668   22.259
C   14.612   13.535   24.758
C   16.296   13.035   26.522
C   14.077   10.225   23.366
H   17.850   13.640   24.315
H   15.605   10.528   25.536
H   17.887   10.763   23.665
H   18.052   11.294   25.350
H   17.489   13.022   21.962
H   16.027   13.842   22.489
H   16.487   10.944   21.787
H   15.041   11.894   21.501
H   13.815   13.253   25.463
H   14.780   14.617   24.859
H   14.230   13.340   23.750
H   15.497   12.723   27.223
H   16.472   14.107   26.681
H   17.211   12.512   26.819
H   13.534   10.104   22.440
H   13.683    9.714   24.244
C   17.384   29.565   25.124
C   17.025   28.724   26.401
C   16.912   28.289   24.311
C   15.988   27.951   25.526
C   18.175   27.785   26.770
C   18.045   27.303   24.251
C   18.487   26.793   25.602
C   18.820   30.047   24.935
C   16.430   30.743   24.931
C   18.623   26.918   23.103
H   16.660   29.283   27.269
H   16.460   28.468   23.330
H   15.820   26.895   25.755
H   15.026   28.455   25.464
H   17.917   27.208   27.670
H   19.068   28.366   27.023
H   17.928   25.860   25.790
H   19.546   26.507   25.589
H   18.936   30.501   23.939
H   19.074   30.811   25.683
H   19.557   29.239   25.005
H   16.538   31.175   23.917
H   16.644   31.542   25.652
H   15.377   30.470   25.057
H   19.468   26.245   23.082
H   18.254   27.285   22.146
C   13.947    4.618   17.526
C   14.046    3.270   18.325
C   13.778    3.696   16.247
C   13.182    2.611   17.203
C   15.467    2.709   18.264
C   15.137    3.261   15.778
C   15.900    2.435   16.786
C   15.125    5.587   17.562
C   12.660    5.379   17.848
C   15.638    3.586   14.576
H   13.654    3.277   19.348
H   13.160    4.088   15.434
H   13.379    1.563   16.963
H   12.113    2.742   17.359
H   15.528    1.770   18.834
H   16.167    3.404   18.740
H   15.685    1.376   16.560
H   16.983    2.553   16.655
H   14.955    6.412   16.852
H   15.236    6.026   18.563
H   16.075    5.119   17.284
H   12.487    6.188   17.112
H   12.720    5.844   18.840
H   11.770    4.741   17.844
H   16.636    3.305   14.273
H   15.044    4.157   13.864
C   20.068   19.115    4.105
C   19.783   18.899    2.576
C   18.493   19.042    4.275
C   18.472   18.156    2.987
C   19.423   20.224    1.901
C   17.907   20.391    3.967
C   18.150   20.858    2.552
C   20.780   20.388    4.552
C   20.760   17.905    4.732
C   17.239   21.124    4.871
H   20.540   18.345    2.010
H   18.117   18.626    5.215
H   17.608   18.249    2.323
H   18.633   17.103    3.208
H   19.234   20.063    0.829
H   20.266   20.919    1.964
H   17.273   20.546    1.958
H   18.172   21.953    2.496
H   20.784   20.450    5.652
H   21.826   20.387    4.214
H   20.300   21.301    4.184
H   20.735   17.966    5.837
H   21.814   17.858    4.429
H   20.302   16.951    4.449
H   16.866   22.113    4.647
H   17.057   20.739    5.873
C   26.229   20.104   17.200
C   25.834   18.891   18.115
C   24.702   20.517   17.311
C   24.681   19.776   18.688
C   25.234   17.758   17.280
C   23.911   19.731   16.305
C   23.952   18.237   16.521
C   26.799   19.829   15.811
C   27.137   21.095   17.928
C   23.236   20.301   15.294
H   26.603   18.526   18.804
H   24.477   21.587   17.278
H   23.754   19.274   18.978
H   25.006   20.416   19.505
H   24.969   16.910   17.929
H   25.976   17.381   16.569
H   23.075   17.979   17.139
H   23.818   17.697   15.576
H   26.898   20.772   15.251
H   27.798   19.377   15.884
H   26.166   19.167   15.210
H   27.207   22.048   17.369
H   28.154   20.694   18.024
H   26.789   21.336   18.938
H   22.711   19.718   14.551
H   23.204   21.385   15.190
C   12.541   27.805   11.179
C   11.161   27.717   10.436
C   12.752   29.142   10.353
C   11.194   29.274   10.315
C   11.333   27.097    9.048
C   13.261   28.792    8.983
C   12.308   27.949    8.170
C   13.554   26.679   10.994
C   12.368   28.085   12.672
C   14.461   29.182    8.524
H   10.336   27.255   10.989
H   13.343   29.929   10.831
H   10.747   29.722    9.424
H   10.802   29.776   11.196
H   10.359   27.032    8.540
H   11.703   26.071    9.137
H   11.701   28.646    7.566
H   12.849   27.326    7.448
H   14.511   26.952   11.467
H   13.198   25.754   11.469
H   13.770   26.464    9.942
H   13.331   28.383   13.130
H   12.017   27.188   13.199
H   11.648   28.883   12.880
H   14.831   28.882    7.554
H   15.107   29.816    9.129
C   22.768   11.266   25.178
C   24.021   10.323   25.258
C   23.605   12.070   24.098
C   24.345   10.729   23.785
C   25.081   10.912   26.190
C   24.541   13.007   24.808
C   25.555   12.314   25.686
C   22.317   12.006   26.434
C   21.564   10.563   24.550
C   24.476   14.342   24.685
H   23.826    9.268   25.477
H   23.039   12.566   23.304
H   25.398   10.788   23.496
H   23.813   10.126   23.052
H   25.950   10.239   26.246
H   24.686   10.989   27.208
H   26.461   12.167   25.073
H   25.862   12.959   26.519
H   21.518   12.720   26.184
H   21.915   11.301   27.176
H   23.121   12.581   26.906
H   20.778   11.294   24.279
H   21.119    9.848   25.254
H   21.816   10.005   23.642
H   25.127   15.004   25.239
H   23.750   14.803   24.016
C   12.188   21.058    3.829
C   11.556   19.785    4.495
C   12.142   20.218    2.485
C   10.936   19.439    3.104