
     Program PWSCF v.5.4.0 starts on 14Nov2016 at  7:24:14 

     This program is part of the open-source Quantum ESPRESSO suite
     for quantum simulation of materials; please cite
         "P. Giannozzi et al., J. Phys.:Condens. Matter 21 395502 (2009);
          URL http://www.quantum-espresso.org", 
     in publications or presentations arising from this work. More details at
     http://www.quantum-espresso.org/quote

     Parallel version (MPI), running on    48 processors
     R & G space division:  proc/nbgrp/npool/nimage =      48
     Waiting for input...
     Reading input from standard input

     Current dimensions of program PWSCF are:
     Max number of different atomic species (ntypx) = 10
     Max number of k-points (npk) =  40000
     Max angular momentum in pseudopotentials (lmaxx) =  3
               file H.pbesol-kjpaw_psl.1.0.0.UPF: wavefunction(s)  1S renormalized
               file C.pbesol-n-kjpaw_psl.1.0.0.UPF: wavefunction(s)  2S 2P renormalized
               file O.pbesol-n-kjpaw_psl.1.0.0.UPF: wavefunction(s)  2S 2P renormalized
               file S.pbesol-n-kjpaw_psl.1.0.0.UPF: wavefunction(s)  3S 3P renormalized
               file Ca.pbesol-spn-kjpaw_psl.1.0.0.UPF: wavefunction(s)  3S renormalized

     Subspace diagonalization in iterative solution of the eigenvalue problem:
     one sub-group per band group will be used
     scalapack distributed-memory algorithm (size of sub-group:  4*  4 procs)

 
     Parallelization info
     --------------------
     sticks:   dense  smooth     PW     G-vecs:    dense   smooth      PW
     Min         134      76     20                22643     9767    1374
     Max         135      77     21                22653     9803    1390
     Sum        6445    3677    999              1086993   469705   66457
 


     bravais-lattice index     =            0
     lattice parameter (alat)  =      21.9573  a.u.
     unit-cell volume          =    9828.7616 (a.u.)^3
     number of atoms/cell      =          120
     number of atomic types    =            5
     number of electrons       =       464.00
     number of Kohn-Sham states=          278
     kinetic-energy cutoff     =      50.0000  Ry
     charge density cutoff     =     350.0000  Ry
     convergence threshold     =      1.0E-06
     mixing beta               =       0.7000
     number of iterations used =            8  local-TF  mixing
     Exchange-correlation      =  SLA  PW   PSX  PSC ( 1  4 10  8 0 0)
     nstep                     =         1000


     celldm(1)=  21.957295  celldm(2)=   0.000000  celldm(3)=   0.000000
     celldm(4)=   0.000000  celldm(5)=   0.000000  celldm(6)=   0.000000

     crystal axes: (cart. coord. in units of alat)
               a(1) = (   1.000000   0.000000   0.000000 )  
               a(2) = (   0.000000   0.479091   0.000000 )  
               a(3) = (  -0.373087   0.000000   1.937958 )  

     reciprocal axes: (cart. coord. in units 2 pi/alat)
               b(1) = (  1.000000  0.000000  0.192515 )  
               b(2) = (  0.000000  2.087287  0.000000 )  
               b(3) = (  0.000000  0.000000  0.516007 )  


     PseudoPot. # 1 for  H read from file:
     /scratch/ongari/0_LIBRARIES/2_espresso/pbesol.1.0.0/H.pbesol-kjpaw_psl.1.0.0.UPF
     MD5 check sum: 9bb220807ff6ce434749bbd582a132b2
     Pseudo is Projector augmented-wave, Zval =  1.0
     Generated using "atomic" code by A. Dal Corso  v.5.3.0 svn rev. 11974
     Shape of augmentation charge: PSQ
     Using radial grid of  929 points,  2 beta functions with: 
                l(1) =   0
                l(2) =   0
     Q(r) pseudized with 0 coefficients 


     PseudoPot. # 2 for  C read from file:
     /scratch/ongari/0_LIBRARIES/2_espresso/pbesol.1.0.0/C.pbesol-n-kjpaw_psl.1.0.0.UPF
     MD5 check sum: 86768611ba5d8849702bc856181df28e
     Pseudo is Projector augmented-wave + core cor, Zval =  4.0
     Generated using "atomic" code by A. Dal Corso  v.5.3.0 svn rev. 11974
     Shape of augmentation charge: PSQ
     Using radial grid of 1073 points,  4 beta functions with: 
                l(1) =   0
                l(2) =   0
                l(3) =   1
                l(4) =   1
     Q(r) pseudized with 0 coefficients 


     PseudoPot. # 3 for  O read from file:
     /scratch/ongari/0_LIBRARIES/2_espresso/pbesol.1.0.0/O.pbesol-n-kjpaw_psl.1.0.0.UPF
     MD5 check sum: ac2c84bd0ca0b44fb3c4ef16e38425d5
     Pseudo is Projector augmented-wave + core cor, Zval =  6.0
     Generated using "atomic" code by A. Dal Corso  v.5.3.0 svn rev. 11974
     Shape of augmentation charge: PSQ
     Using radial grid of 1095 points,  4 beta functions with: 
                l(1) =   0
                l(2) =   0
                l(3) =   1
                l(4) =   1
     Q(r) pseudized with 0 coefficients 


     PseudoPot. # 4 for  S read from file:
     /scratch/ongari/0_LIBRARIES/2_espresso/pbesol.1.0.0/S.pbesol-n-kjpaw_psl.1.0.0.UPF
     MD5 check sum: 78ef03859d75f916a8166625c57f8f3f
     Pseudo is Projector augmented-wave + core cor, Zval =  6.0
     Generated using "atomic" code by A. Dal Corso  v.5.3.0 svn rev. 11974
     Shape of augmentation charge: PSQ
     Using radial grid of 1151 points,  6 beta functions with: 
                l(1) =   0
                l(2) =   0
                l(3) =   1
                l(4) =   1
                l(5) =   2
                l(6) =   2
     Q(r) pseudized with 0 coefficients 


     PseudoPot. # 5 for Ca read from file:
     /scratch/ongari/0_LIBRARIES/2_espresso/pbesol.1.0.0/Ca.pbesol-spn-kjpaw_psl.1.0.0.UPF
     MD5 check sum: c8fc22ddaefc67ffd405aacc3b24f771
     Pseudo is Projector augmented-wave + core cor, Zval = 10.0
     Generated using "atomic" code by A. Dal Corso  v.5.3.0 svn rev. 11974
     Shape of augmentation charge: PSQ
     Using radial grid of 1169 points,  6 beta functions with: 
                l(1) =   0
                l(2) =   0
                l(3) =   1
                l(4) =   1
                l(5) =   2
                l(6) =   2
     Q(r) pseudized with 0 coefficients 


     atomic species   valence    mass     pseudopotential
        H              1.00     1.00800      H( 1.00)
        C              4.00    12.01100      C( 1.00)
        O              6.00    15.99900      O( 1.00)
        S              6.00    32.06600      S( 1.00)
        Ca            10.00    40.07800     Ca( 1.00)

      2 Sym. Ops., with inversion, found
          (note:  2 additional sym.ops. were found but ignored
           their fractional translations are incommensurate with FFT grid)


   Cartesian axes

     site n.     atom                  positions (alat units)
         1           C   tau(   1) = (   0.3954515   0.1238930   0.5077449  )
         2           C   tau(   2) = (  -0.0819946   0.3634384   0.4612343  )
         3           C   tau(   3) = (   0.2314623   0.3551978   1.4302135  )
         4           C   tau(   4) = (   0.7089076   0.1156524   1.4767241  )
         5           C   tau(   5) = (   0.2882101   0.1011360   0.5796434  )
         6           C   tau(   6) = (   0.0252468   0.3406815   0.3893358  )
         7           C   tau(   7) = (   0.3387037   0.3779548   1.3583150  )
         8           C   tau(   8) = (   0.6016662   0.1384094   1.5486226  )
         9           C   tau(   9) = (   0.2001368   0.1815273   0.5815815  )
        10           C   tau(  10) = (   0.1133201   0.4210727   0.3873977  )
        11           C   tau(  11) = (   0.4267770   0.2975635   1.3563769  )
        12           C   tau(  12) = (   0.5135929   0.0580181   1.5505607  )
        13           H   tau(  13) = (   0.2095866   0.2532949   0.5434036  )
        14           H   tau(  14) = (   0.1038703   0.0137495   0.4255756  )
        15           H   tau(  15) = (   0.4173272   0.2257959   1.3945547  )
        16           H   tau(  16) = (   0.5230436   0.4653413   1.5123828  )
        17           C   tau(  17) = (   0.0977185   0.1572375   0.6393328  )
        18           C   tau(  18) = (   0.2157376   0.3967829   0.3296464  )
        19           C   tau(  19) = (   0.5291945   0.3218533   1.2986256  )
        20           C   tau(  20) = (   0.4111754   0.0823079   1.6083112  )
        21           H   tau(  21) = (   0.0364325   0.2114224   0.6403011  )
        22           H   tau(  22) = (   0.2770244   0.4509678   0.3286781  )
        23           H   tau(  23) = (   0.5904814   0.2676684   1.2976565  )
        24           H   tau(  24) = (   0.3498885   0.0281230   1.6092802  )
        25           C   tau(  25) = (   0.0869992   0.0525083   0.6955333  )
        26           C   tau(  26) = (   0.2264577   0.2920537   0.2734459  )
        27           C   tau(  27) = (   0.5399138   0.4265825   1.2424251  )
        28           C   tau(  28) = (   0.4004561   0.1870371   1.6645125  )
        29           C   tau(  29) = (   0.1764771   0.4509678   0.6982460  )
        30           C   tau(  30) = (   0.1369799   0.2114224   0.2707332  )
        31           C   tau(  31) = (   0.4504368   0.0281230   1.2397115  )
        32           C   tau(  32) = (   0.4899331   0.2676684   1.6672252  )
        33           H   tau(  33) = (   0.1684809   0.3812605   0.7403002  )
        34           H   tau(  34) = (   0.1449760   0.1417151   0.2286790  )
        35           H   tau(  35) = (   0.4584321   0.0978303   1.1976582  )
        36           H   tau(  36) = (   0.4819378   0.3373757   1.7092794  )
        37           C   tau(  37) = (   0.2773429   0.4748746   0.6381693  )
        38           C   tau(  38) = (   0.0361141   0.2353292   0.3308091  )
        39           C   tau(  39) = (   0.3495710   0.0042163   1.2997883  )
        40           C   tau(  40) = (   0.5907989   0.2437617   1.6071485  )
        41           H   tau(  41) = (   0.3383035   0.4204978   0.6368129  )
        42           H   tau(  42) = (  -0.0248475   0.1809524   0.3321663  )
        43           H   tau(  43) = (   0.2886095   0.0585930   1.3011455  )
        44           H   tau(  44) = (   0.6517604   0.2981384   1.6057921  )
        45           C   tau(  45) = (  -0.0264250   0.0536099   0.9112279  )
        46           C   tau(  46) = (   0.3398819   0.2931554   0.0577513  )
        47           C   tau(  47) = (   0.6533388   0.4254809   1.0267305  )
        48           C   tau(  48) = (   0.2870311   0.1859355   1.8802071  )
        49           C   tau(  49) = (  -0.0634496   0.1600165   0.9497930  )
        50           C   tau(  50) = (   0.3769065   0.3995619   0.0191862  )
        51           C   tau(  51) = (   0.6903634   0.3190743   0.9881645  )
        52           C   tau(  52) = (   0.2500065   0.0795289   1.9187722  )
        53           H   tau(  53) = (  -0.0924393   0.2156868   0.8972744  )
        54           H   tau(  54) = (   0.4058954   0.4552322   0.0717048  )
        55           H   tau(  55) = (   0.7193523   0.2634040   1.0406832  )
        56           H   tau(  56) = (   0.2210176   0.0238586   1.8662536  )
        57           C   tau(  57) = (  -0.0572961   0.1838269   1.0674275  )
        58           C   tau(  58) = (  -0.0023340   0.4233723   1.8395101  )
        59           C   tau(  59) = (   0.6842090   0.2952639   0.8705309  )
        60           C   tau(  60) = (   0.6292470   0.0557185   0.0984483  )
        61           H   tau(  61) = (  -0.0810686   0.2568408   1.0953336  )
        62           H   tau(  62) = (   0.0214385   0.0172954   1.8116031  )
        63           H   tau(  63) = (   0.7079815   0.2222500   0.8426239  )
        64           H   tau(  64) = (   0.6054745   0.4617955   0.1263553  )
        65           C   tau(  65) = (  -0.0165208   0.1012798   1.1433950  )
        66           C   tau(  66) = (  -0.0431093   0.3408252   1.7635417  )
        67           C   tau(  67) = (   0.6434346   0.3778111   0.7945625  )
        68           C   tau(  68) = (   0.6700223   0.1382656   0.1744158  )
        69           C   tau(  69) = (   0.0243018   0.4745398   1.1032799  )
        70           C   tau(  70) = (  -0.0839319   0.2349944   1.8036577  )
        71           C   tau(  71) = (   0.6026112   0.0045510   0.8346785  )
        72           C   tau(  72) = (   0.7108449   0.2440965   0.1343007  )
        73           H   tau(  73) = (   0.0550653   0.4196354   1.1554104  )
        74           H   tau(  74) = (  -0.1146954   0.1800900   1.7515263  )
        75           H   tau(  75) = (   0.5718477   0.0594554   0.7825471  )
        76           H   tau(  76) = (   0.7416092   0.2990008   0.1864312  )
        77           C   tau(  77) = (   0.0196733   0.4502492   0.9860336  )
        78           C   tau(  78) = (  -0.0793034   0.2107037   1.9209040  )
        79           C   tau(  79) = (   0.6072397   0.0288417   0.9519248  )
        80           C   tau(  80) = (   0.7062172   0.2683871   0.0170544  )
        81           H   tau(  81) = (   0.0474323   0.3789609   0.9571575  )
        82           H   tau(  82) = (   0.2660238   0.1394155   0.0118217  )
        83           H   tau(  83) = (   0.5794807   0.1001300   0.9808009  )
        84           H   tau(  84) = (   0.3608892   0.3396754   1.9261367  )
        85           C   tau(  85) = (  -0.0171327   0.1257133   1.2707194  )
        86           C   tau(  86) = (  -0.0424974   0.3652587   1.6362182  )
        87           C   tau(  87) = (   0.6440465   0.3533776   0.6672390  )
        88           C   tau(  88) = (   0.6694104   0.1138322   0.3017402  )
        89           O   tau(  89) = (   0.4183040   0.2278080   0.4887721  )
        90           O   tau(  90) = (   0.8951529   0.4673535   0.4802071  )
        91           O   tau(  91) = (   0.2086098   0.2512828   1.4491854  )
        92           O   tau(  92) = (  -0.2682399   0.0117374   1.4577513  )
        93           O   tau(  93) = (   0.4499712   0.0387106   0.4723193  )
        94           O   tau(  94) = (   0.8634858   0.2782560   0.4966599  )
        95           O   tau(  95) = (   0.1769418   0.4403802   1.4656391  )
        96           O   tau(  96) = (  -0.2365719   0.2008348   1.4412985  )
        97           O   tau(  97) = (  -0.1331044   0.0938060   0.7194478  )
        98           O   tau(  98) = (   0.4465613   0.3333514   0.2495314  )
        99           O   tau(  99) = (   0.7600182   0.3852848   1.2185106  )
       100           O   tau( 100) = (   0.1803517   0.1457394   1.6884270  )
       101           O   tau( 101) = (  -0.0591051   0.3734993   0.7568502  )
       102           O   tau( 102) = (   0.3725620   0.1339539   0.2121290  )
       103           O   tau( 103) = (   0.6860190   0.1055916   1.1811082  )
       104           O   tau( 104) = (   0.2543510   0.3451370   1.7258294  )
       105           O   tau( 105) = (  -0.0138571   0.2284303   1.3035673  )
       106           O   tau( 106) = (  -0.0457730   0.4679757   1.6033694  )
       107           O   tau( 107) = (   0.6407701   0.2506605   0.6343911  )
       108           O   tau( 108) = (   0.6726868   0.0111151   0.3345881  )
       109           O   tau( 109) = (  -0.0170759   0.0407228   1.3384705  )
       110           O   tau( 110) = (  -0.0425542   0.2802682   1.5684671  )
       111           O   tau( 111) = (   0.6439897   0.4383681   0.5994879  )
       112           O   tau( 112) = (   0.6694672   0.1988226   0.3694913  )
       113           S   tau( 113) = (  -0.0438185   0.0174391   0.7638266  )
       114           S   tau( 114) = (   0.3572754   0.2569845   0.2051526  )
       115           S   tau( 115) = (   0.6707315   0.4616517   1.1741318  )
       116           S   tau( 116) = (   0.2696384   0.2221063   1.7328058  )
       117           Ca  tau( 117) = (   0.5546840   0.3561127   0.4286179  )
       118           Ca  tau( 118) = (   0.7587720   0.1165673   0.5403613  )
       119           Ca  tau( 119) = (   0.0722290   0.1229781   1.5093396  )
       120           Ca  tau( 120) = (  -0.1318591   0.3625236   1.3975971  )

     number of k points=     2  gaussian smearing, width (Ry)=  0.0200
                       cart. coord. in units 2pi/alat
        k(    1) = (   0.0000000   0.0000000   0.0000000), wk =   1.0000000
        k(    2) = (   0.0000000  -1.0436435   0.0000000), wk =   1.0000000

     Dense  grid:  1086993 G-vectors     FFT dimensions: ( 135,  64, 270)

     Smooth grid:   469705 G-vectors     FFT dimensions: ( 100,  48, 200)

     Largest allocated arrays     est. size (Mb)     dimensions
        Kohn-Sham Wavefunctions         5.26 Mb     (    1241,  278)
        NL pseudopotentials            16.06 Mb     (    1241,  848)
        Each V/rho on FFT grid          0.79 Mb     (   51840)
        Each G-vector array             0.17 Mb     (   22644)
        G-vector shells                 0.17 Mb     (   22644)
     Largest temporary arrays     est. size (Mb)     dimensions
        Auxiliary wavefunctions        21.06 Mb     (    1241, 1112)
        Each subspace H/S matrix        1.18 Mb     (     278,  278)
        Each <psi_i|beta_j> matrix      3.60 Mb     (     848,  278)
        Arrays for rho mixing           6.33 Mb     (   51840,    8)

     Check: negative/imaginary core charge=   -0.000008    0.000000

     Initial potential from superposition of free atoms

     starting charge  463.97874, renormalised to  464.00000
     Starting wfc are  400 randomized atomic wfcs
     Checking if some PAW data can be deallocated... 

     total cpu time spent up to now is        8.7 secs

     per-process dynamical memory:   146.7 Mb

     Self-consistent Calculation

     iteration #  1     ecut=    50.00 Ry     beta=0.70
     Davidson diagonalization with overlap
     ethr =  1.00E-02,  avg # of iterations =  6.0

     total cpu time spent up to now is       20.7 secs

     total energy              =   -2825.18373478 Ry
     Harris-Foulkes estimate   =   -2832.46961151 Ry
     estimated scf accuracy    <      18.47059428 Ry

     iteration #  2     ecut=    50.00 Ry     beta=0.70
     Davidson diagonalization with overlap
     ethr =  3.98E-03,  avg # of iterations =  2.5

     total cpu time spent up to now is       26.7 secs

     total energy              =   -2824.46544160 Ry
     Harris-Foulkes estimate   =   -2826.43264918 Ry
     estimated scf accuracy    <       3.94621127 Ry

     iteration #  3     ecut=    50.00 Ry     beta=0.70
     Davidson diagonalization with overlap
     ethr =  8.50E-04,  avg # of iterations =  7.0

     total cpu time spent up to now is       43.3 secs

     total energy              =   -2826.39667562 Ry
     Harris-Foulkes estimate   =   -2826.80535533 Ry
     estimated scf accuracy    <       2.54439268 Ry

     iteration #  4     ecut=    50.00 Ry     beta=0.70
     Davidson diagonalization with overlap
     ethr =  5.48E-04,  avg # of iterations =  1.0

     total cpu time spent up to now is       48.7 secs

     total energy              =   -2825.42816702 Ry
     Harris-Foulkes estimate   =   -2826.42719070 Ry
     estimated scf accuracy    <       1.61681473 Ry

     iteration #  5     ecut=    50.00 Ry     beta=0.70
     Davidson diagonalization with overlap
     ethr =  3.48E-04,  avg # of iterations =  4.0

     total cpu time spent up to now is       58.9 secs

     total energy              =   -2826.09475675 Ry
     Harris-Foulkes estimate   =   -2826.55384940 Ry
     estimated scf accuracy    <       1.48749041 Ry

     iteration #  6     ecut=    50.00 Ry     beta=0.70
     Davidson diagonalization with overlap
     ethr =  3.21E-04,  avg # of iterations =  1.0

     total cpu time spent up to now is       64.3 secs

     total energy              =   -2825.86273159 Ry
     Harris-Foulkes estimate   =   -2826.14960611 Ry
     estimated scf accuracy    <       0.52551229 Ry

     iteration #  7     ecut=    50.00 Ry     beta=0.70
     Davidson diagonalization with overlap
     ethr =  1.13E-04,  avg # of iterations =  4.0

     total cpu time spent up to now is       74.7 secs

     total energy              =   -2826.22293793 Ry
     Harris-Foulkes estimate   =   -2826.31755708 Ry
     estimated scf accuracy    <       0.55767005 Ry

     iteration #  8     ecut=    50.00 Ry     beta=0.70
     Davidson diagonalization with overlap
     ethr =  1.13E-04,  avg # of iterations =  1.0

     negative rho (up, down):  4.590E-06 0.000E+00

     total cpu time spent up to now is       80.7 secs

     total energy              =   -2826.04487340 Ry
     Harris-Foulkes estimate   =   -2826.22917003 Ry
     estimated scf accuracy    <       0.34438411 Ry

     iteration #  9     ecut=    50.00 Ry     beta=0.70
     Davidson diagonalization with overlap
     ethr =  7.42E-05,  avg # of iterations =  8.5

     total cpu time spent up to now is       93.4 secs

     total energy              =   -2826.18020590 Ry
     Harris-Foulkes estimate   =   -2826.19539992 Ry
     estimated scf accuracy    <       0.09482897 Ry

     iteration # 10     ecut=    50.00 Ry     beta=0.70
     Davidson diagonalization with overlap
     ethr =  2.04E-05,  avg # of iterations =  2.0

     negative rho (up, down):  3.362E-03 0.000E+00

     total cpu time spent up to now is       99.8 secs

     total energy              =   -2826.17277389 Ry
     Harris-Foulkes estimate   =   -2826.18214489 Ry
     estimated scf accuracy    <       0.06142554 Ry

     iteration # 11     ecut=    50.00 Ry     beta=0.70
     Davidson diagonalization with overlap
     ethr =  1.32E-05,  avg # of iterations =  6.5

     negative rho (up, down):  2.798E-03 0.000E+00

     total cpu time spent up to now is      108.7 secs

     total energy              =   -2826.17737692 Ry
     Harris-Foulkes estimate   =   -2826.17983095 Ry
     estimated scf accuracy    <       0.03192559 Ry

     iteration # 12     ecut=    50.00 Ry     beta=0.70
     Davidson diagonalization with overlap
     ethr =  6.88E-06,  avg # of iterations =  2.0

     negative rho (up, down):  2.455E-03 0.000E+00

     total cpu time spent up to now is      115.0 secs

     total energy              =   -2826.17362854 Ry
     Harris-Foulkes estimate   =   -2826.17782503 Ry
     estimated scf accuracy    <       0.02590205 Ry

     iteration # 13     ecut=    50.00 Ry     beta=0.70
     Davidson diagonalization with overlap
     c_bands:  1 eigenvalues not converged
     ethr =  5.58E-06,  avg # of iterations = 19.0

     negative rho (up, down):  6.942E-04 0.000E+00

     total cpu time spent up to now is      128.7 secs

     total energy              =   -2826.17055626 Ry
     Harris-Foulkes estimate   =   -2826.17527186 Ry
     estimated scf accuracy    <       0.01802796 Ry

     iteration # 14     ecut=    50.00 Ry     beta=0.70
     Davidson diagonalization with overlap
     ethr =  3.89E-06,  avg # of iterations =  8.5

     negative rho (up, down):  2.283E-04 0.000E+00

     total cpu time spent up to now is      138.7 secs

     total energy              =   -2826.17049153 Ry
     Harris-Foulkes estimate   =   -2826.17236755 Ry
     estimated scf accuracy    <       0.00509132 Ry

     iteration # 15     ecut=    50.00 Ry     beta=0.70
     Davidson diagonalization with overlap
     ethr =  1.10E-06,  avg # of iterations = 11.0

     negative rho (up, down):  9.682E-05 0.000E+00

     total cpu time spent up to now is      151.7 secs

     total energy              =   -2826.17186961 Ry
     Harris-Foulkes estimate   =   -2826.17189960 Ry
     estimated scf accuracy    <       0.00009861 Ry

     iteration # 16     ecut=    50.00 Ry     beta=0.70
     Davidson diagonalization with overlap
     ethr =  2.13E-08,  avg # of iterations =  4.0

     negative rho (up, down):  4.263E-05 0.000E+00

     total cpu time spent up to now is      162.4 secs

     total energy              =   -2826.17189968 Ry
     Harris-Foulkes estimate   =   -2826.17192110 Ry
     estimated scf accuracy    <       0.00007440 Ry

     iteration # 17     ecut=    50.00 Ry     beta=0.70
     Davidson diagonalization with overlap
     ethr =  1.60E-08,  avg # of iterations =  4.0

     negative rho (up, down):  4.958E-05 0.000E+00

     total cpu time spent up to now is      169.4 secs

     total energy              =   -2826.17189716 Ry
     Harris-Foulkes estimate   =   -2826.17190477 Ry
     estimated scf accuracy    <       0.00001692 Ry

     iteration # 18     ecut=    50.00 Ry     beta=0.70
     Davidson diagonalization with overlap
     ethr =  3.65E-09,  avg # of iterations =  4.0

     negative rho (up, down):  4.938E-05 0.000E+00

     total cpu time spent up to now is      179.1 secs

     total energy              =   -2826.17190287 Ry
     Harris-Foulkes estimate   =   -2826.17190534 Ry
     estimated scf accuracy    <       0.00000569 Ry

     iteration # 19     ecut=    50.00 Ry     beta=0.70
     Davidson diagonalization with overlap
     ethr =  1.23E-09,  avg # of iterations =  3.5

     negative rho (up, down):  4.910E-05 0.000E+00

     total cpu time spent up to now is      185.7 secs

     End of self-consistent calculation

          k = 0.0000 0.0000 0.0000 ( 58723 PWs)   bands (ev):

   -36.7800 -36.7800 -36.7723 -36.7722 -21.4988 -21.4985 -21.4979 -21.4976
   -20.1813 -20.1811 -20.1677 -20.1676 -19.5517 -19.5516 -19.5511 -19.5509
   -18.7834 -18.7830 -18.7811 -18.7807 -18.4316 -18.4315 -18.2130 -18.2129
   -17.9260 -17.9257 -17.8610 -17.8609 -17.8443 -17.8440 -17.8150 -17.8146
   -17.4836 -17.4835 -17.3757 -17.3757 -16.9188 -16.9187 -16.8791 -16.8790
   -15.3403 -15.3327 -15.3058 -15.3039 -15.1569 -15.1499 -15.0876 -15.0798
   -13.1442 -13.1373 -13.1138 -13.1008 -12.5769 -12.5685 -12.5666 -12.5628
   -12.5042 -12.5013 -12.4234 -12.4226 -12.3260 -12.3258 -12.3126 -12.3124
   -10.6666 -10.6619 -10.6421 -10.6329  -9.4249  -9.4223  -9.4175  -9.3822
    -9.2600  -9.2582  -9.2095  -9.2092  -9.0440  -9.0344  -9.0287  -9.0242
    -8.3221  -8.3037  -8.2984  -8.2721  -7.8812  -7.8471  -7.7506  -7.7204
    -7.5398  -7.5237  -7.5152  -7.4755  -6.8810  -6.7628  -6.7428  -6.6855
    -6.1709  -5.9962  -5.9803  -5.9149  -5.5084  -5.4611  -5.4383  -5.4365
    -5.3511  -5.3221  -5.3220  -5.2803  -5.2731  -5.2510  -5.2201  -5.1963
    -5.0657  -5.0596  -5.0589  -5.0506  -5.0492  -5.0312  -4.9707  -4.9657
    -4.9646  -4.9550  -4.8528  -4.8504  -4.5674  -4.5331  -4.4935  -4.4575
    -4.4477  -4.4459  -4.4112  -4.3845  -4.3571  -4.3132  -4.2762  -4.2671
    -4.2366  -4.1937  -4.1562  -4.1539  -4.0610  -3.9996  -3.9866  -3.9589
    -3.8293  -3.8033  -3.7968  -3.7600  -3.5255  -3.5206  -3.5054  -3.4778
    -3.3875  -3.3449  -3.3257  -3.2830  -3.1832  -3.1533  -3.1014  -3.0674
    -2.9500  -2.9281  -2.8476  -2.8160  -2.5657  -2.5362  -2.4800  -2.4071
    -2.3898  -2.3864  -2.3170  -2.3072  -2.1264  -2.1202  -2.1174  -2.1150
    -1.9062  -1.8414  -1.8323  -1.7978  -1.5383  -1.5338  -1.4568  -1.4508
    -1.1409  -1.1307  -1.0942  -1.0877  -0.8078  -0.7515  -0.7313  -0.7168
    -0.6674  -0.6216  -0.6141  -0.5782  -0.5614  -0.5210  -0.5026  -0.4965
    -0.4825  -0.4664  -0.4013  -0.3462  -0.3067  -0.2595  -0.2307  -0.1984
    -0.0308  -0.0212  -0.0184   0.0064   0.0469   0.0574   0.0875   0.1020
     0.2417   0.2578   0.2804   0.2977   0.3548   0.4038   0.4571   0.4776
     0.5991   0.6069   0.6542   0.6756   1.0084   1.0109   1.0162   1.0214
     3.8418   3.9310   3.9772   4.0086   4.6003   4.6448   4.6563   4.7399
     4.7519   4.7794   4.8614   4.8797   5.0895   5.1500   5.1876   5.2585
     6.0090   6.0297   6.1972   6.2853   6.3104   6.3912   6.6510   6.8081
     6.8367   6.9213   6.9266   7.1673   7.3221   7.3931   7.4438   7.4595
     7.4704   7.4866   7.6092   7.6623   7.7172   7.8037   7.8750   7.9607
     7.9689   7.9968   8.0280   8.0763   8.0807   8.1270

          k = 0.0000-1.0436 0.0000 ( 58708 PWs)   bands (ev):

   -36.7761 -36.7761 -36.7761 -36.7760 -21.4891 -21.4891 -21.4884 -21.4883
   -20.1863 -20.1863 -20.1862 -20.1861 -19.5569 -19.5569 -19.5567 -19.5567
   -18.8017 -18.8017 -18.8011 -18.8011 -18.3015 -18.3014 -18.3014 -18.3014
   -17.8989 -17.8989 -17.8985 -17.8985 -17.7757 -17.7757 -17.7755 -17.7754
   -17.4379 -17.4379 -17.4378 -17.4378 -16.9583 -16.9583 -16.9582 -16.9582
   -15.2822 -15.2821 -15.2606 -15.2605 -15.0717 -15.0717 -15.0699 -15.0699
   -13.1373 -13.1373 -13.1042 -13.1041 -12.7428 -12.7428 -12.6266 -12.6266
   -12.5544 -12.5544 -12.5516 -12.5516 -12.4748 -12.4747 -12.4692 -12.4692
   -10.5845 -10.5845 -10.5472 -10.5472  -9.3433  -9.3432  -9.3319  -9.3319
    -9.2779  -9.2779  -9.2539  -9.2539  -9.1012  -9.1012  -9.0954  -9.0954
    -8.1378  -8.1378  -8.1170  -8.1169  -7.5988  -7.5988  -7.4394  -7.4394
    -7.3104  -7.3104  -7.2869  -7.2869  -6.7272  -6.7272  -6.6851  -6.6851
    -5.9032  -5.9031  -5.8726  -5.8725  -5.5282  -5.5281  -5.4753  -5.4752
    -5.3444  -5.3443  -5.2928  -5.2927  -5.1393  -5.1393  -5.1137  -5.1136
    -5.0706  -5.0706  -4.9913  -4.9912  -4.9545  -4.9545  -4.8878  -4.8878
    -4.7654  -4.7654  -4.7408  -4.7408  -4.7092  -4.7092  -4.6721  -4.6721
    -4.5247  -4.5246  -4.5198  -4.5197  -4.5101  -4.5100  -4.4470  -4.4469
    -4.3807  -4.3807  -4.3394  -4.3394  -4.0593  -4.0592  -4.0093  -4.0093
    -3.9165  -3.9165  -3.9026  -3.9026  -3.6106  -3.6106  -3.5728  -3.5728
    -3.4061  -3.4061  -3.3685  -3.3685  -3.1740  -3.1739  -3.1154  -3.1154
    -3.0173  -3.0173  -2.9925  -2.9925  -2.6081  -2.6081  -2.5400  -2.5399
    -2.4123  -2.4123  -2.3191  -2.3190  -2.1393  -2.1393  -2.1336  -2.1336
    -1.9861  -1.9861  -1.9525  -1.9525  -1.5451  -1.5450  -1.5420  -1.5419
    -1.1084  -1.1083  -1.0971  -1.0971  -0.7552  -0.7552  -0.6681  -0.6680
    -0.5649  -0.5649  -0.5557  -0.5557  -0.5191  -0.5191  -0.4935  -0.4934
    -0.2946  -0.2946  -0.2549  -0.2549  -0.1621  -0.1620  -0.1011  -0.1011
     0.0003   0.0004   0.0450   0.0451   0.0966   0.0967   0.1374   0.1374
     0.2031   0.2031   0.2954   0.2954   0.3414   0.3415   0.3788   0.3789
     0.6638   0.6639   0.6694   0.6695   0.7841   0.7841   0.8150   0.8150
     3.7962   3.7962   3.8228   3.8228   4.4926   4.4927   4.5223   4.5223
     4.8742   4.8742   4.9370   4.9370   5.2113   5.2113   5.3073   5.3073
     6.2742   6.2743   6.4104   6.4104   6.6989   6.6989   6.7445   6.7446
     6.7845   6.7845   7.1565   7.1565   7.2783   7.2784   7.3757   7.3757
     7.5647   7.5647   7.7217   7.7217   7.7865   7.7865   7.8829   7.8829
     7.9959   7.9960   8.1100   8.1100   8.1733   8.1733

     the Fermi energy is     2.4228 ev

!    total energy              =   -2826.17190316 Ry
     Harris-Foulkes estimate   =   -2826.17190387 Ry
     estimated scf accuracy    <       0.00000080 Ry

     total all-electron energy =    -16512.276763 Ry

     The total energy is the sum of the following terms:

     one-electron contribution =   -2309.33345386 Ry
     hartree contribution      =    1334.38924131 Ry
     xc contribution           =    -527.29190495 Ry
     ewald contribution        =    -360.67947259 Ry
     one-center paw contrib.   =    -963.25631307 Ry
     smearing contrib. (-TS)   =      -0.00000000 Ry

     convergence has been achieved in  19 iterations

     negative rho (up, down):  4.910E-05 0.000E+00

     Forces acting on atoms (Ry/au):

     atom    1 type  2   force =    -0.03344044    0.00726831    0.02452293
     atom    2 type  2   force =     0.03336695    0.00727444   -0.02452280
     atom    3 type  2   force =     0.03344044   -0.00726831   -0.02452293
     atom    4 type  2   force =    -0.03336695   -0.00727444    0.02452280
     atom    5 type  2   force =     0.02184563   -0.02284790   -0.00813037
     atom    6 type  2   force =    -0.02182702   -0.02284763    0.00811869
     atom    7 type  2   force =    -0.02184563    0.02284790    0.00813037
     atom    8 type  2   force =     0.02182702    0.02284763   -0.00811869
     atom    9 type  2   force =    -0.04094008   -0.23750456    0.13649720
     atom   10 type  2   force =     0.04095748   -0.23748401   -0.13650119
     atom   11 type  2   force =     0.04094008    0.23750456   -0.13649720
     atom   12 type  2   force =    -0.04095748    0.23748401    0.13650119
     atom   13 type  1   force =     0.03327122    0.24462660   -0.13365421
     atom   14 type  1   force =    -0.03327110    0.24462511    0.13365355
     atom   15 type  1   force =    -0.03327122   -0.24462660    0.13365421
     atom   16 type  1   force =     0.03327110   -0.24462511   -0.13365355
     atom   17 type  2   force =     0.20795142   -0.17554104   -0.00507163
     atom   18 type  2   force =    -0.20792498   -0.17555030    0.00507143
     atom   19 type  2   force =    -0.20795142    0.17554104    0.00507163
     atom   20 type  2   force =     0.20792498    0.17555030   -0.00507143
     atom   21 type  1   force =    -0.21357342    0.18617611    0.00114619
     atom   22 type  1   force =     0.21356685    0.18616983   -0.00114623
     atom   23 type  1   force =     0.21357342   -0.18617611   -0.00114619
     atom   24 type  1   force =    -0.21356685   -0.18616983    0.00114623
     atom   25 type  2   force =     0.00596449   -0.00672901    0.00222934
     atom   26 type  2   force =    -0.00599301   -0.00672642   -0.00222396
     atom   27 type  2   force =    -0.00596449    0.00672901   -0.00222934
     atom   28 type  2   force =     0.00599301    0.00672642    0.00222396
     atom   29 type  2   force =     0.02936077    0.24163460   -0.14108681
     atom   30 type  2   force =    -0.02936261    0.24163098    0.14107774
     atom   31 type  2   force =    -0.02936077   -0.24163460    0.14108681
     atom   32 type  2   force =     0.02936261   -0.24163098   -0.14107774
     atom   33 type  1   force =    -0.02956445   -0.24193959    0.14082212
     atom   34 type  1   force =     0.02956342   -0.24193248   -0.14081865
     atom   35 type  1   force =     0.02956445    0.24193959   -0.14082212
     atom   36 type  1   force =    -0.02956342    0.24193248    0.14081865
     atom   37 type  2   force =    -0.21820262    0.20041630    0.00647192
     atom   38 type  2   force =     0.21821799    0.20041505   -0.00647220
     atom   39 type  2   force =     0.21820262   -0.20041630   -0.00647192
     atom   40 type  2   force =    -0.21821799   -0.20041505    0.00647220
     atom   41 type  1   force =     0.21315566   -0.18987309   -0.00851425
     atom   42 type  1   force =    -0.21314780   -0.18986802    0.00851547
     atom   43 type  1   force =    -0.21315566    0.18987309    0.00851425
     atom   44 type  1   force =     0.21314780    0.18986802   -0.00851547
     atom   45 type  2   force =     0.00341911   -0.01586247   -0.00063111
     atom   46 type  2   force =    -0.00337778   -0.01585350    0.00062394
     atom   47 type  2   force =    -0.00341911    0.01586247    0.00063111
     atom   48 type  2   force =     0.00337778    0.01585350   -0.00062394
     atom   49 type  2   force =     0.09707780   -0.17773002    0.18619039
     atom   50 type  2   force =    -0.09702811   -0.17772587   -0.18617453
     atom   51 type  2   force =    -0.09707780    0.17773002   -0.18619039
     atom   52 type  2   force =     0.09702811    0.17772587    0.18617453
     atom   53 type  1   force =    -0.10002868    0.19090162   -0.18100229
     atom   54 type  1   force =     0.10002793    0.19090703    0.18100704
     atom   55 type  1   force =     0.10002868   -0.19090162    0.18100229
     atom   56 type  1   force =    -0.10002793   -0.19090703   -0.18100704
     atom   57 type  2   force =     0.08265562   -0.24479066   -0.10955900
     atom   58 type  2   force =    -0.08265134   -0.24479862    0.10953938
     atom   59 type  2   force =    -0.08265562    0.24479066    0.10955900
     atom   60 type  2   force =     0.08265134    0.24479862   -0.10953938
     atom   61 type  1   force =    -0.08665073    0.25223182    0.10071407
     atom   62 type  1   force =     0.08664873    0.25222798   -0.10071270
     atom   63 type  1   force =     0.08665073   -0.25223182   -0.10071407
     atom   64 type  1   force =    -0.08664873   -0.25222798    0.10071270
     atom   65 type  2   force =     0.00321180   -0.00651213    0.01692984
     atom   66 type  2   force =    -0.00321271   -0.00650511   -0.01695171
     atom   67 type  2   force =    -0.00321180    0.00651213   -0.01692984
     atom   68 type  2   force =     0.00321271    0.00650511    0.01695171
     atom   69 type  2   force =    -0.10718775    0.19061489   -0.18801778
     atom   70 type  2   force =     0.10717021    0.19061652    0.18799057
     atom   71 type  2   force =     0.10718775   -0.19061489    0.18801778
     atom   72 type  2   force =    -0.10717021   -0.19061652   -0.18799057
     atom   73 type  1   force =     0.10359536   -0.19220094    0.18434516
     atom   74 type  1   force =    -0.10359327   -0.19219919   -0.18434313
     atom   75 type  1   force =    -0.10359536    0.19220094   -0.18434516
     atom   76 type  1   force =     0.10359327    0.19219919    0.18434313
     atom   77 type  2   force =    -0.09173704    0.24945399    0.09496203
     atom   78 type  2   force =     0.09181612    0.24944888   -0.09493883
     atom   79 type  2   force =     0.09173704   -0.24945399   -0.09496203
     atom   80 type  2   force =    -0.09181612   -0.24944888    0.09493883
     atom   81 type  1   force =     0.09301213   -0.24713360   -0.09969594
     atom   82 type  1   force =    -0.09301139   -0.24712870    0.09969383
     atom   83 type  1   force =    -0.09301213    0.24713360    0.09969594
     atom   84 type  1   force =     0.09301139    0.24712870   -0.09969383
     atom   85 type  2   force =     0.00090030    0.00008662   -0.03446260
     atom   86 type  2   force =    -0.00109895    0.00009788    0.03443913
     atom   87 type  2   force =    -0.00090030   -0.00008662    0.03446260
     atom   88 type  2   force =     0.00109895   -0.00009788   -0.03443913
     atom   89 type  3   force =     0.00828243    0.02808742   -0.00607597
     atom   90 type  3   force =    -0.00828649    0.02807415    0.00608364
     atom   91 type  3   force =    -0.00828243   -0.02808742    0.00607597
     atom   92 type  3   force =     0.00828649   -0.02807415   -0.00608364
     atom   93 type  3   force =     0.01953908   -0.03398691   -0.01162795
     atom   94 type  3   force =    -0.01953920   -0.03398725    0.01162819
     atom   95 type  3   force =    -0.01953908    0.03398691    0.01162795
     atom   96 type  3   force =     0.01953920    0.03398725   -0.01162819
     atom   97 type  3   force =    -0.01387929    0.01402462   -0.00794689
     atom   98 type  3   force =     0.01387894    0.01402384    0.00795030
     atom   99 type  3   force =     0.01387929   -0.01402462    0.00794689
     atom  100 type  3   force =    -0.01387894   -0.01402384   -0.00795030
     atom  101 type  3   force =    -0.00085753   -0.03035177    0.00083277
     atom  102 type  3   force =     0.00085590   -0.03034629   -0.00083408
     atom  103 type  3   force =     0.00085753    0.03035177   -0.00083277
     atom  104 type  3   force =    -0.00085590    0.03034629    0.00083408
     atom  105 type  3   force =    -0.00082640    0.02473273    0.00917771
     atom  106 type  3   force =     0.00082728    0.02473368   -0.00917399
     atom  107 type  3   force =     0.00082640   -0.02473273   -0.00917771
     atom  108 type  3   force =    -0.00082728   -0.02473368    0.00917399
     atom  109 type  3   force =    -0.00005567   -0.02251458    0.01931317
     atom  110 type  3   force =     0.00005410   -0.02251290   -0.01931178
     atom  111 type  3   force =     0.00005567    0.02251458   -0.01931317
     atom  112 type  3   force =    -0.00005410    0.02251290    0.01931178
     atom  113 type  4   force =     0.01672540    0.01528477    0.01204813
     atom  114 type  4   force =    -0.01672631    0.01528714   -0.01204579
     atom  115 type  4   force =    -0.01672540   -0.01528477   -0.01204813
     atom  116 type  4   force =     0.01672631   -0.01528714    0.01204579
     atom  117 type  5   force =    -0.00121794    0.00178571    0.00105949
     atom  118 type  5   force =     0.00121897    0.00178522   -0.00105957
     atom  119 type  5   force =     0.00121794   -0.00178571   -0.00105949
     atom  120 type  5   force =    -0.00121897   -0.00178522    0.00105957

     Total force =     2.269455     Total SCF correction =     0.002570


     entering subroutine stress ...


     negative rho (up, down):  4.910E-05 0.000E+00
          total   stress  (Ry/bohr**3)                   (kbar)     P=   89.58
   0.00035634   0.00000000   0.00002857         52.42      0.00      4.20
   0.00000000   0.00114619  -0.00000000          0.00    168.61     -0.00
   0.00002857  -0.00000000   0.00032434          4.20     -0.00     47.71


     BFGS Geometry Optimization

     number of scf cycles    =   1
     number of bfgs steps    =   0

     enthalpy new            =   -2826.1719031574 Ry

     new trust radius        =       0.5000000000 bohr
     new conv_thr            =       0.0000010000 Ry

     new unit-cell volume =  10228.07260 a.u.^3 (  1515.64397 Ang^3 )

CELL_PARAMETERS (angstrom)
  11.710391410   0.000000221   0.007303800
   0.000000106   5.707074567  -0.000000043
  -4.354840562  -0.000000256  22.675674781

ATOMIC_POSITIONS (angstrom)
C        4.618913025   1.479321055   5.956118087
C       -0.941166949   4.332861166   5.385371206
C        2.736648008   4.227753477  16.726860457
C        8.296717904   1.374213366  17.297607332
C        3.389537703   1.193854784   6.781407495
C        0.288251591   4.047392156   4.560076289
C        3.966023330   4.513219748  15.901571049
C        7.067299364   1.659682376  18.122902249
C        2.328753743   2.049015861   6.871258400
C        1.349035013   4.902562953   4.470228976
C        5.026807289   3.658058671  15.811720144
C        6.006515942   0.804511579  18.212749562
H        2.473886852   3.134118191   6.297879859
H        1.203893734   0.280580183   5.043609099
H        4.881674181   2.572956341  16.385098685
H        6.151667299   5.426494349  17.639369445
C        1.246589018   1.789252177   7.480004202
C        2.431193898   4.642785092   3.861484951
C        6.108961936   3.917822355  15.202974336
C        4.924357051   1.064289440  18.821483516
H        0.331077484   2.607413330   7.493679681
H        3.346700044   5.460947700   3.847809530
H        7.024483543   3.099661202  15.189288792
H        4.008850911   0.246126832  18.835169008
C        1.026674947   0.622282366   8.140960710
C        2.651092211   3.475820951   3.200531070
C        6.328876008   5.084792166  14.542017828
C        4.704468822   2.231253581  19.482447475
C        2.085454333   5.487428234   8.106149170
C        1.592325412   2.633889250   3.235335807
C        5.270106694   0.219646297  14.576819303
C        5.763225542   3.073185282  19.447642731
H        1.964549738   4.426180647   8.730418601
H        1.713230356   1.572646802   2.611072277
H        5.391001217   1.280893885  13.952559937
H        5.642330676   4.134427730  20.071906267
C        3.150045735   5.752534106   7.472988939
C        0.527742093   2.898996206   3.868490090
C        4.205515291  -0.045459574  15.209979534
C        6.827808855   2.808078326  18.814478376
H        4.066357444   4.918445452   7.450659326
H       -0.388583242   2.064910536   3.890830483
H        3.289193510   0.788629080  15.232319212
H        7.744134196   3.642163996  18.792148055
C       -0.301187118   0.631044502  10.662893594
C        3.978987054   3.484586224   0.678592320
C        7.656748151   5.076030030  12.020084950
C        3.376563901   2.222488308  22.004386218
C       -0.690465736   1.821311281  11.201569358
C        4.368269645   4.674850723   0.139927343
C        8.046026762   3.885763251  11.481399115
C        2.987281309   1.032223809  22.543051195
H       -1.122947153   2.660468882  10.414498231
H        4.800717340   5.514008934   0.926993222
H        8.478498101   3.046605650  12.268470235
H        2.554833615   0.193065598  21.755985316
C       -0.624401472   2.072930947  12.439483762
C       -0.052656494   4.926464372  21.577671057
C        7.979952426   3.634143585  10.243494776
C        7.408207449   0.780610160   1.105307481
H       -0.981983532   3.179987979  12.864444619
H        0.304922553   0.326448819  21.152710001
H        8.337534480   2.527086553   9.818523848
H        7.050628402   5.380625713   1.530268537
C       -0.183601372   1.203365976  13.388071548
C       -0.493459065   4.056906550  20.629072158
C        7.539162398   4.503708556   9.294896925
C        7.849010013   1.650167981   2.053896309
C        0.242279556   5.743866421  12.822778726
C       -0.919347738   2.890329830  21.194372517
C        7.113271399  -0.036791889   9.860199812
C        8.274898692   2.816744702   1.488606021
H        0.701950202   4.907061285  13.607749538
H       -1.379009195   2.053524744  20.409405365
H        6.653600746   0.800013247   9.075218929
H        8.734570221   3.653549788   2.273563108
C        0.194556042   5.482600827  11.583428875
C       -0.871578866   2.629061001  22.433746046
C        7.160994912   0.224473705  11.099549663
C        8.227139899   3.078013531   0.249232498
H        0.606066627   4.396307029  11.154474884
H        3.071704213   1.542772216   0.187013369
H        6.749484327   1.310767503  11.528503655
H        4.283846742   4.164302315  22.495965169
C       -0.190937078   1.497575470  14.853939501
C       -0.486216156   4.351118093  19.163213465
C        7.546498111   4.209499061   7.829039044
C        7.841767110   1.355956439   3.519765073
O        4.905959334   2.727128059   5.719922925
O       10.482210792   5.580659110   5.628873702
O        2.449601692   2.979946473  16.963045548
O       -3.126659837   0.126415422  17.054104836
O        5.281955280   0.444905939   5.525019457
O       10.106216605   3.298443149   5.823773723
O        2.073595674   5.262168593  17.157959081
O       -2.750655573   2.408631383  16.859204822
O       -1.559966357   1.124141034   8.414427341
O        5.237746752   3.977678115   2.927063515
O        8.915527389   4.582933498  14.268551203
O        2.117804203   1.729396417  19.755915023
O       -0.687018233   4.434745081   8.856780461
O        4.364798041   1.581210554   2.484708171
O        8.042579266   1.272329451  13.826198083
O        2.990752914   4.125863977  20.198270367
O       -0.153136393   2.732938574  15.258824163
O       -0.523923146   5.586476280  18.758331520
O        7.508687347   2.974135958   7.424154375
O        7.879484172   0.120598252   3.924636953
O       -0.190210011   0.474352575  15.671998417
O       -0.486850752   3.327890635  18.345166280
O        7.545771043   5.232721957   7.010980127
O        7.842401706   2.379183897   4.337812258
S       -0.499699247   0.215037030   8.943795833
S        4.177479345   3.068575584   2.397694531
S        7.855250202   5.492037502  13.739182705
S        3.178081688   2.638498948  20.285284014
Ca       6.498126251   4.242974361   5.020325333
Ca       8.890036130   1.389436876   6.328467677
Ca       0.857424697   1.464100171  17.662643133
Ca      -1.534485176   4.317637655  16.354510861



     Writing output data file pwscf.save
     NEW-OLD atomic charge density approx. for the potential

     Check: negative/imaginary core charge=   -0.000008    0.000000

     negative rho (up, down):  2.827E-05 0.000E+00
     extrapolated charge  482.11405, renormalised to  464.00000

     total cpu time spent up to now is      211.6 secs

     per-process dynamical memory:   171.1 Mb

     Self-consistent Calculation

     iteration #  1     ecut=    50.00 Ry     beta=0.70
     Davidson diagonalization with overlap
     c_bands:  2 eigenvalues not converged
     ethr =  1.00E-06,  avg # of iterations = 21.0

     negative rho (up, down):  2.767E-05 0.000E+00

     total cpu time spent up to now is      245.4 secs

     total energy              =   -2799.59546293 Ry
     Harris-Foulkes estimate   =   -2749.61457861 Ry
     estimated scf accuracy    <      71.73854479 Ry

     iteration #  2     ecut=    50.00 Ry     beta=0.70
     Davidson diagonalization with overlap
     ethr =  1.00E-02,  avg # of iterations =  6.0

     total cpu time spent up to now is      255.5 secs

     total energy              =   -2825.94978145 Ry
     Harris-Foulkes estimate   =   -2829.60441042 Ry
     estimated scf accuracy    <      11.18043831 Ry

     iteration #  3     ecut=    50.00 Ry     beta=0.70
     Davidson diagonalization with overlap
     ethr =  2.41E-03,  avg # of iterations =  2.5

     total cpu time spent up to now is      264.4 secs

     total energy              =   -2825.16785524 Ry
     Harris-Foulkes estimate   =   -2826.60078953 Ry
     estimated scf accuracy    <       4.06901979 Ry

     iteration #  4     ecut=    50.00 Ry     beta=0.70
     Davidson diagonalization with overlap
     ethr =  8.77E-04,  avg # of iterations =  8.5

     total cpu time spent up to now is      276.8 secs

     total energy              =   -2826.17257447 Ry
     Harris-Foulkes estimate   =   -2826.25164311 Ry
     estimated scf accuracy    <       0.94924608 Ry

     iteration #  5     ecut=    50.00 Ry     beta=0.70
     Davidson diagonalization with overlap
     ethr =  2.05E-04,  avg # of iterations =  2.5

     total cpu time spent up to now is      282.9 secs

     total energy              =   -2826.06121612 Ry
     Harris-Foulkes estimate   =   -2826.23792531 Ry
     estimated scf accuracy    <       0.93138168 Ry

     iteration #  6     ecut=    50.00 Ry     beta=0.70
     Davidson diagonalization with overlap
     ethr =  2.01E-04,  avg # of iterations =  3.0

     total cpu time spent up to now is      289.7 secs

     total energy              =   -2826.01936823 Ry
     Harris-Foulkes estimate   =   -2826.16306642 Ry
     estimated scf accuracy    <       0.89214818 Ry

     iteration #  7     ecut=    50.00 Ry     beta=0.70
     Davidson diagonalization with overlap
     ethr =  1.92E-04,  avg # of iterations =  1.0

     total cpu time spent up to now is      295.2 secs

     total energy              =   -2825.91605630 Ry
     Harris-Foulkes estimate   =   -2826.03324255 Ry
     estimated scf accuracy    <       0.54828976 Ry

     iteration #  8     ecut=    50.00 Ry     beta=0.70
     Davidson diagonalization with overlap
     ethr =  1.18E-04,  avg # of iterations =  3.5

     total cpu time spent up to now is      301.7 secs

     total energy              =   -2825.93021278 Ry
     Harris-Foulkes estimate   =   -2825.94860229 Ry
     estimated scf accuracy    <       0.21131681 Ry

     iteration #  9     ecut=    50.00 Ry     beta=0.70
     Davidson diagonalization with overlap
     c_bands:  2 eigenvalues not converged
     ethr =  4.55E-05,  avg # of iterations = 19.0

     total cpu time spent up to now is      315.6 secs

     total energy              =   -2825.92193934 Ry
     Harris-Foulkes estimate   =   -2825.93733387 Ry
     estimated scf accuracy    <       0.14734399 Ry

     iteration # 10     ecut=    50.00 Ry     beta=0.70
     Davidson diagonalization with overlap
     ethr =  3.18E-05,  avg # of iterations =  6.5

     total cpu time spent up to now is      323.5 secs

     total energy              =   -2825.89009470 Ry
     Harris-Foulkes estimate   =   -2825.92568462 Ry
     estimated scf accuracy    <       0.09821475 Ry

     iteration # 11     ecut=    50.00 Ry     beta=0.70
     Davidson diagonalization with overlap
     ethr =  2.12E-05,  avg # of iterations = 12.5

     negative rho (up, down):  2.565E-04 0.000E+00

     total cpu time spent up to now is      339.4 secs

     total energy              =   -2825.90143106 Ry
     Harris-Foulkes estimate   =   -2825.90626269 Ry
     estimated scf accuracy    <       0.01565764 Ry

     iteration # 12     ecut=    50.00 Ry     beta=0.70
     Davidson diagonalization with overlap
     ethr =  3.37E-06,  avg # of iterations =  5.0

     negative rho (up, down):  6.549E-08 0.000E+00

     total cpu time spent up to now is      347.5 secs

     total energy              =   -2825.90283272 Ry
     Harris-Foulkes estimate   =   -2825.90315489 Ry
     estimated scf accuracy    <       0.00236977 Ry

     iteration # 13     ecut=    50.00 Ry     beta=0.70
     Davidson diagonalization with overlap
     ethr =  5.11E-07,  avg # of iterations =  4.0

     negative rho (up, down):  4.588E-07 0.000E+00

     total cpu time spent up to now is      355.7 secs

     total energy              =   -2825.90299536 Ry
     Harris-Foulkes estimate   =   -2825.90329736 Ry
     estimated scf accuracy    <       0.00096799 Ry

     iteration # 14     ecut=    50.00 Ry     beta=0.70
     Davidson diagonalization with overlap
     ethr =  2.09E-07,  avg # of iterations =  3.5

     negative rho (up, down):  6.903E-06 0.000E+00

     total cpu time spent up to now is      362.9 secs

     total energy              =   -2825.90305146 Ry
     Harris-Foulkes estimate   =   -2825.90310395 Ry
     estimated scf accuracy    <       0.00015018 Ry

     iteration # 15     ecut=    50.00 Ry     beta=0.70
     Davidson diagonalization with overlap
     ethr =  3.24E-08,  avg # of iterations =  5.0

     negative rho (up, down):  1.158E-05 0.000E+00

     total cpu time spent up to now is      374.8 secs

     total energy              =   -2825.90312496 Ry
     Harris-Foulkes estimate   =   -2825.90314589 Ry
     estimated scf accuracy    <       0.00006042 Ry

     iteration # 16     ecut=    50.00 Ry     beta=0.70
     Davidson diagonalization with overlap
     ethr =  1.30E-08,  avg # of iterations =  4.0

     negative rho (up, down):  5.459E-05 0.000E+00

     total cpu time spent up to now is      382.1 secs

     total energy              =   -2825.90313307 Ry
     Harris-Foulkes estimate   =   -2825.90313315 Ry
     estimated scf accuracy    <       0.00000856 Ry

     iteration # 17     ecut=    50.00 Ry     beta=0.70
     Davidson diagonalization with overlap
     ethr =  1.84E-09,  avg # of iterations =  4.0

     negative rho (up, down):  6.546E-05 0.000E+00

     total cpu time spent up to now is      393.4 secs

     total energy              =   -2825.90313512 Ry
     Harris-Foulkes estimate   =   -2825.90314147 Ry
     estimated scf accuracy    <       0.00002008 Ry

     iteration # 18     ecut=    50.00 Ry     beta=0.70
     Davidson diagonalization with overlap
     ethr =  1.84E-09,  avg # of iterations =  4.0

     negative rho (up, down):  5.320E-05 0.000E+00

     total cpu time spent up to now is      400.9 secs

     total energy              =   -2825.90313398 Ry
     Harris-Foulkes estimate   =   -2825.90313634 Ry
     estimated scf accuracy    <       0.00000451 Ry

     iteration # 19     ecut=    50.00 Ry     beta=0.70
     Davidson diagonalization with overlap
     ethr =  9.72E-10,  avg # of iterations =  4.0

     negative rho (up, down):  5.274E-05 0.000E+00

     total cpu time spent up to now is      411.7 secs

     total energy              =   -2825.90313617 Ry
     Harris-Foulkes estimate   =   -2825.90313748 Ry
     estimated scf accuracy    <       0.00000481 Ry

     iteration # 20     ecut=    50.00 Ry     beta=0.70
     Davidson diagonalization with overlap
     ethr =  9.72E-10,  avg # of iterations =  1.0

     negative rho (up, down):  4.490E-05 0.000E+00

     total cpu time spent up to now is      417.9 secs

     total energy              =   -2825.90313531 Ry
     Harris-Foulkes estimate   =   -2825.90313633 Ry
     estimated scf accuracy    <       0.00000181 Ry

     iteration # 21     ecut=    50.00 Ry     beta=0.70
     Davidson diagonalization with overlap
     ethr =  3.89E-10,  avg # of iterations =  4.0

     negative rho (up, down):  4.522E-05 0.000E+00

     total cpu time spent up to now is      429.4 secs

     total energy              =   -2825.90313591 Ry
     Harris-Foulkes estimate   =   -2825.90313713 Ry
     estimated scf accuracy    <       0.00000312 Ry

     iteration # 22     ecut=    50.00 Ry     beta=0.70
     Davidson diagonalization with overlap
     ethr =  3.89E-10,  avg # of iterations =  5.0

     negative rho (up, down):  4.689E-05 0.000E+00

     total cpu time spent up to now is      436.8 secs

     End of self-consistent calculation

          k = 0.0000 0.0000 0.0000 ( 58723 PWs)   bands (ev):

   -37.2228 -37.2228 -37.2168 -37.2167 -21.2544 -21.2540 -21.2532 -21.2530
   -19.8660 -19.8655 -19.8446 -19.8443 -19.2238 -19.2237 -19.2225 -19.2223
   -18.6992 -18.6988 -18.6959 -18.6950 -18.6409 -18.6406 -18.4934 -18.4933
   -18.2824 -18.2823 -18.2286 -18.2285 -18.1776 -18.1772 -18.1663 -18.1657
   -17.3950 -17.3950 -17.2883 -17.2882 -16.8398 -16.8397 -16.8305 -16.8304
   -16.4146 -16.4101 -16.3956 -16.3938 -16.2639 -16.2630 -16.2193 -16.2170
   -13.6152 -13.6151 -13.5881 -13.5825 -13.0304 -13.0173 -13.0062 -13.0056
   -12.7675 -12.7671 -12.7100 -12.7097 -12.6025 -12.6023 -12.5838 -12.5835
   -11.3497 -11.3452 -11.3287 -11.3162 -10.0044 -10.0037  -9.9866  -9.9700
    -8.7240  -8.7165  -8.7072  -8.6980  -8.5239  -8.5211  -8.4700  -8.4683
    -8.3134  -8.2983  -8.2964  -8.2849  -7.7776  -7.7267  -7.6320  -7.5734
    -7.4016  -7.4006  -7.3985  -7.3753  -7.1901  -7.1385  -7.1316  -7.0526
    -6.5204  -6.3973  -6.3564  -6.3283  -6.0392  -6.0358  -6.0055  -5.9893
    -5.7430  -5.7238  -5.7127  -5.6976  -5.6167  -5.5740  -5.5489  -5.5399
    -5.2428  -5.2075  -5.1669  -5.1613  -4.8603  -4.8536  -4.8498  -4.8383
    -4.6498  -4.6215  -4.5764  -4.5500  -4.3892  -4.3698  -4.2819  -4.2290
    -4.1912  -4.1526  -4.0862  -4.0805  -3.9270  -3.8870  -3.8284  -3.8259
    -3.7414  -3.7108  -3.6864  -3.6838  -3.6710  -3.6437  -3.6146  -3.5912
    -3.5293  -3.5236  -3.4787  -3.4785  -3.3856  -3.3496  -3.3424  -3.3265
    -3.2842  -3.2758  -3.2737  -3.2441  -3.2348  -3.1901  -3.1566  -3.1432
    -3.0945  -3.0686  -3.0196  -3.0153  -2.9983  -2.9609  -2.9048  -2.8605
    -2.1000  -2.0659  -2.0508  -2.0279  -1.7489  -1.7322  -1.7165  -1.7156
    -1.3302  -1.3292  -1.2930  -1.2738  -1.2617  -1.2476  -1.1927  -1.1541
    -1.0842  -1.0536  -1.0511  -1.0510  -1.0461  -1.0271  -0.9733  -0.9446
    -0.9373  -0.8948  -0.8885  -0.8717  -0.8507  -0.7853  -0.7743  -0.7388
    -0.7056  -0.6901  -0.6863  -0.6607  -0.5930  -0.5800  -0.5180  -0.5066
    -0.4719  -0.4502  -0.3689  -0.3616  -0.3065  -0.3043  -0.2753  -0.2653
     0.0439   0.0458   0.0461   0.0505   0.0636   0.0773   0.1407   0.1529
     0.1927   0.1945   0.2582   0.2754   0.7333   0.7414   0.7456   0.7550
     3.2602   3.3655   3.3751   3.4112   4.0079   4.0959   4.1143   4.1547
     5.1747   5.3215   5.3510   5.3511   5.3980   5.4807   5.6107   5.6141
     5.6505   5.7130   5.7568   5.8117   5.8166   5.8838   5.8839   5.9606
     6.1534   6.1598   6.1780   6.1866   6.3273   6.3422   6.4602   6.5180
     6.5782   6.6350   6.6942   6.6980   7.0078   7.0696   7.0748   7.1972
     7.2481   7.3400   7.4004   7.4509   7.5452   7.5533

          k = 0.0000-1.0180-0.0000 ( 58708 PWs)   bands (ev):

   -37.2198 -37.2197 -37.2197 -37.2197 -21.2457 -21.2456 -21.2448 -21.2447
   -19.8735 -19.8734 -19.8731 -19.8730 -19.2312 -19.2311 -19.2310 -19.2309
   -18.7050 -18.7050 -18.7045 -18.7044 -18.5667 -18.5667 -18.5666 -18.5666
   -18.2476 -18.2476 -18.2472 -18.2472 -18.1078 -18.1078 -18.1074 -18.1074
   -17.3707 -17.3707 -17.3706 -17.3705 -16.8782 -16.8781 -16.8780 -16.8780
   -16.3874 -16.3872 -16.3802 -16.3800 -16.2232 -16.2231 -16.2218 -16.2218
   -13.6172 -13.6171 -13.5902 -13.5901 -13.0161 -13.0160 -13.0114 -13.0113
   -12.8833 -12.8831 -12.8078 -12.8075 -12.6821 -12.6820 -12.6809 -12.6808
   -11.3145 -11.3144 -11.2890 -11.2888  -9.9726  -9.9725  -9.9653  -9.9651
    -8.7003  -8.7002  -8.6748  -8.6747  -8.5215  -8.5214  -8.4619  -8.4618
    -8.3344  -8.3344  -8.3294  -8.3294  -7.5285  -7.5283  -7.4234  -7.4232
    -7.2126  -7.2126  -7.2086  -7.2086  -7.0371  -7.0370  -6.9925  -6.9924
    -6.2144  -6.2144  -6.1962  -6.1962  -5.9653  -5.9652  -5.9347  -5.9345
    -5.7135  -5.7135  -5.6936  -5.6936  -5.4435  -5.4434  -5.4084  -5.4083
    -5.0272  -5.0272  -5.0224  -5.0223  -5.0011  -5.0010  -4.9910  -4.9909
    -4.6897  -4.6896  -4.6719  -4.6718  -4.3817  -4.3816  -4.3097  -4.3096
    -4.3080  -4.3079  -4.2536  -4.2535  -4.0367  -4.0366  -3.9966  -3.9966
    -3.9414  -3.9413  -3.8159  -3.8158  -3.6977  -3.6976  -3.6703  -3.6702
    -3.6076  -3.6076  -3.5696  -3.5696  -3.5204  -3.5204  -3.4076  -3.4075
    -3.3678  -3.3677  -3.3464  -3.3464  -3.2894  -3.2894  -3.2173  -3.2173
    -3.1214  -3.1213  -3.0144  -3.0144  -2.8725  -2.8724  -2.8573  -2.8572
    -2.1467  -2.1466  -2.1329  -2.1328  -1.7550  -1.7549  -1.7424  -1.7423
    -1.4168  -1.4168  -1.3548  -1.3547  -1.1909  -1.1909  -1.1322  -1.1322
    -1.0095  -1.0095  -0.9874  -0.9873  -0.9145  -0.9144  -0.8649  -0.8648
    -0.8548  -0.8547  -0.8194  -0.8193  -0.7616  -0.7614  -0.7458  -0.7457
    -0.6612  -0.6611  -0.6309  -0.6308  -0.5816  -0.5815  -0.5360  -0.5359
    -0.5035  -0.5035  -0.4820  -0.4820  -0.3539  -0.3539  -0.2871  -0.2870
    -0.0740  -0.0740  -0.0435  -0.0435   0.0669   0.0670   0.0852   0.0853
     0.2720   0.2720   0.2774   0.2774   0.5302   0.5303   0.5535   0.5536
     3.2993   3.2995   3.3118   3.3120   4.0160   4.0162   4.0527   4.0528
     5.3763   5.3764   5.4017   5.4018   5.6976   5.6976   5.7493   5.7494
     5.7775   5.7775   5.8658   5.8658   5.9159   5.9160   5.9862   5.9862
     6.1163   6.1163   6.1846   6.1846   6.4810   6.4811   6.6764   6.6765
     6.7206   6.7207   6.9346   6.9346   7.0458   7.0458   7.0667   7.0668
     7.1607   7.1608   7.2813   7.2813   7.4847   7.4848

     the Fermi energy is     2.0062 ev

!    total energy              =   -2825.90313601 Ry
     Harris-Foulkes estimate   =   -2825.90313626 Ry
     estimated scf accuracy    <       0.00000027 Ry

     total all-electron energy =    -16512.007996 Ry

     The total energy is the sum of the following terms:

     one-electron contribution =   -2316.43908834 Ry
     hartree contribution      =    1333.33512261 Ry
     xc contribution           =    -522.83649846 Ry
     ewald contribution        =    -356.75171776 Ry
     one-center paw contrib.   =    -963.21095406 Ry
     smearing contrib. (-TS)   =      -0.00000000 Ry

     convergence has been achieved in  22 iterations

     negative rho (up, down):  4.689E-05 0.000E+00

     Forces acting on atoms (Ry/au):

     atom    1 type  2   force =     0.05761008   -0.00030370   -0.03587445
     atom    2 type  2   force =    -0.05754322   -0.00031115    0.03586939
     atom    3 type  2   force =    -0.05761008    0.00030370    0.03587445
     atom    4 type  2   force =     0.05754322    0.00031115   -0.03586939
     atom    5 type  2   force =     0.02481777    0.01543175   -0.02447492
     atom    6 type  2   force =    -0.02484008    0.01544346    0.02447281
     atom    7 type  2   force =    -0.02481777   -0.01543175    0.02447492
     atom    8 type  2   force =     0.02484008   -0.01544346   -0.02447281
     atom    9 type  2   force =     0.21159158    0.23474254   -0.20388877
     atom   10 type  2   force =    -0.21165124    0.23474334    0.20388179
     atom   11 type  2   force =    -0.21159158   -0.23474254    0.20388877
     atom   12 type  2   force =     0.21165124   -0.23474334   -0.20388179
     atom   13 type  1   force =    -0.01520287   -0.10026018    0.05335740
     atom   14 type  1   force =     0.01520558   -0.10025634   -0.05335769
     atom   15 type  1   force =     0.01520287    0.10026018   -0.05335740
     atom   16 type  1   force =    -0.01520558    0.10025634    0.05335769
     atom   17 type  2   force =    -0.35081201    0.10827295    0.10612730
     atom   18 type  2   force =     0.35082850    0.10827994   -0.10611486
     atom   19 type  2   force =     0.35081201   -0.10827295   -0.10612730
     atom   20 type  2   force =    -0.35082850   -0.10827994    0.10611486
     atom   21 type  1   force =     0.08168576   -0.07144986   -0.00393121
     atom   22 type  1   force =    -0.08167939   -0.07144977    0.00392980
     atom   23 type  1   force =    -0.08168576    0.07144986    0.00393121
     atom   24 type  1   force =     0.08167939    0.07144977   -0.00392980
     atom   25 type  2   force =    -0.04095648    0.00100746    0.01745531
     atom   26 type  2   force =     0.04100348    0.00100534   -0.01745292
     atom   27 type  2   force =     0.04095648   -0.00100746   -0.01745531
     atom   28 type  2   force =    -0.04100348   -0.00100534    0.01745292
     atom   29 type  2   force =    -0.19569778   -0.24199795    0.22172335
     atom   30 type  2   force =     0.19574975   -0.24200668   -0.22173412
     atom   31 type  2   force =     0.19569778    0.24199795   -0.22172335
     atom   32 type  2   force =    -0.19574975    0.24200668    0.22173412
     atom   33 type  1   force =     0.01409205    0.09611339   -0.06292397
     atom   34 type  1   force =    -0.01409119    0.09611162    0.06292272
     atom   35 type  1   force =    -0.01409205   -0.09611339    0.06292397
     atom   36 type  1   force =     0.01409119   -0.09611162   -0.06292272
     atom   37 type  2   force =     0.35802785   -0.11205993   -0.11103995
     atom   38 type  2   force =    -0.35803168   -0.11205393    0.11105153
     atom   39 type  2   force =    -0.35802785    0.11205993    0.11103995
     atom   40 type  2   force =     0.35803168    0.11205393   -0.11105153
     atom   41 type  1   force =    -0.08696734    0.07541982    0.00097959
     atom   42 type  1   force =     0.08696944    0.07541905   -0.00097857
     atom   43 type  1   force =     0.08696734   -0.07541982   -0.00097959
     atom   44 type  1   force =    -0.08696944   -0.07541905    0.00097857
     atom   45 type  2   force =    -0.01308422    0.00849501   -0.04264205
     atom   46 type  2   force =     0.01312095    0.00849900    0.04265347
     atom   47 type  2   force =     0.01308422   -0.00849501    0.04264205
     atom   48 type  2   force =    -0.01312095   -0.00849900   -0.04265347
     atom   49 type  2   force =    -0.08864559    0.10323670   -0.36482967
     atom   50 type  2   force =     0.08854938    0.10326087    0.36473709
     atom   51 type  2   force =     0.08864559   -0.10323670    0.36482967
     atom   52 type  2   force =    -0.08854938   -0.10326087   -0.36473709
     atom   53 type  1   force =     0.03865327   -0.07266058    0.07233700
     atom   54 type  1   force =    -0.03864702   -0.07265732   -0.07233549
     atom   55 type  1   force =    -0.03865327    0.07266058   -0.07233700
     atom   56 type  1   force =     0.03864702    0.07265732    0.07233549
     atom   57 type  2   force =    -0.05343937    0.24970895    0.29231187
     atom   58 type  2   force =     0.05353518    0.24969362   -0.29225608
     atom   59 type  2   force =     0.05343937   -0.24970895   -0.29231187
     atom   60 type  2   force =    -0.05353518   -0.24969362    0.29225608
     atom   61 type  1   force =     0.03060792   -0.10340258   -0.04137209
     atom   62 type  1   force =    -0.03060795   -0.10340246    0.04137140
     atom   63 type  1   force =    -0.03060792    0.10340258    0.04137209
     atom   64 type  1   force =     0.03060795    0.10340246   -0.04137140
     atom   65 type  2   force =    -0.00044129    0.00524002    0.03322753
     atom   66 type  2   force =     0.00038257    0.00523377   -0.03323931
     atom   67 type  2   force =     0.00044129   -0.00524002   -0.03322753
     atom   68 type  2   force =    -0.00038257   -0.00523377    0.03323931
     atom   69 type  2   force =     0.09172971   -0.10835587    0.36142606
     atom   70 type  2   force =    -0.09161864   -0.10836227   -0.36133537
     atom   71 type  2   force =    -0.09172971    0.10835587   -0.36142606
     atom   72 type  2   force =     0.09161864    0.10836227    0.36133537
     atom   73 type  1   force =    -0.04470021    0.07402243   -0.07333284
     atom   74 type  1   force =     0.04469583    0.07402145    0.07333140
     atom   75 type  1   force =     0.04470021   -0.07402243    0.07333284
     atom   76 type  1   force =    -0.04469583   -0.07402145   -0.07333140
     atom   77 type  2   force =     0.07371533   -0.25167584   -0.28180976
     atom   78 type  2   force =    -0.07375965   -0.25166916    0.28170149
     atom   79 type  2   force =    -0.07371533    0.25167584    0.28180976
     atom   80 type  2   force =     0.07375965    0.25166916   -0.28170149
     atom   81 type  1   force =    -0.04002081    0.09937548    0.04414587
     atom   82 type  1   force =     0.04003069    0.09937712   -0.04414269
     atom   83 type  1   force =     0.04002081   -0.09937548   -0.04414587
     atom   84 type  1   force =    -0.04003069   -0.09937712    0.04414269
     atom   85 type  2   force =     0.00210956    0.01516893    0.05961703
     atom   86 type  2   force =    -0.00222015    0.01517544   -0.05961112
     atom   87 type  2   force =    -0.00210956   -0.01516893   -0.05961703
     atom   88 type  2   force =     0.00222015   -0.01517544    0.05961112
     atom   89 type  3   force =    -0.01969091   -0.08176042    0.01595183
     atom   90 type  3   force =     0.01967653   -0.08174325   -0.01594972
     atom   91 type  3   force =     0.01969091    0.08176042   -0.01595183
     atom   92 type  3   force =    -0.01967653    0.08174325    0.01594972
     atom   93 type  3   force =    -0.04479617    0.07085482    0.02957139
     atom   94 type  3   force =     0.04477745    0.07084459   -0.02956647
     atom   95 type  3   force =     0.04479617   -0.07085482   -0.02957139
     atom   96 type  3   force =    -0.04477745   -0.07084459    0.02956647
     atom   97 type  3   force =     0.03747074   -0.02873611    0.01904909
     atom   98 type  3   force =    -0.03747480   -0.02873907   -0.01904870
     atom   99 type  3   force =    -0.03747074    0.02873611   -0.01904909
     atom  100 type  3   force =     0.03747480    0.02873907    0.01904870
     atom  101 type  3   force =     0.01555676    0.09114855    0.00903391
     atom  102 type  3   force =    -0.01555856    0.09114450   -0.00903288
     atom  103 type  3   force =    -0.01555676   -0.09114855   -0.00903391
     atom  104 type  3   force =     0.01555856   -0.09114450    0.00903288
     atom  105 type  3   force =    -0.00395172   -0.08376572   -0.02617835
     atom  106 type  3   force =     0.00392375   -0.08375479    0.02616971
     atom  107 type  3   force =     0.00395172    0.08376572    0.02617835
     atom  108 type  3   force =    -0.00392375    0.08375479   -0.02616971
     atom  109 type  3   force =     0.00039516    0.06328436   -0.04243208
     atom  110 type  3   force =    -0.00042023    0.06328348    0.04242275
     atom  111 type  3   force =    -0.00039516   -0.06328436    0.04243208
     atom  112 type  3   force =     0.00042023   -0.06328348   -0.04242275
     atom  113 type  4   force =    -0.03820239   -0.05396279   -0.01943381
     atom  114 type  4   force =     0.03820113   -0.05395972    0.01943667
     atom  115 type  4   force =     0.03820239    0.05396279    0.01943381
     atom  116 type  4   force =    -0.03820113    0.05395972   -0.01943667
     atom  117 type  5   force =    -0.00019410    0.00262692    0.00338819
     atom  118 type  5   force =     0.00019162    0.00262820   -0.00338767
     atom  119 type  5   force =     0.00019410   -0.00262692   -0.00338819
     atom  120 type  5   force =    -0.00019162   -0.00262820    0.00338767

     Total force =     2.324401     Total SCF correction =     0.001108


     entering subroutine stress ...


     negative rho (up, down):  4.689E-05 0.000E+00
          total   stress  (Ry/bohr**3)                   (kbar)     P=   12.70
   0.00022704   0.00000001  -0.00012501         33.40      0.00    -18.39
   0.00000001  -0.00037253   0.00000001          0.00    -54.80      0.00
  -0.00012501   0.00000001   0.00040444        -18.39      0.00     59.50


     number of scf cycles    =   2
     number of bfgs steps    =   1

     enthalpy old            =   -2826.1719031574 Ry
     enthalpy new            =   -2825.9031360077 Ry

     CASE: enthalpy_new > enthalpy_old

     new trust radius        =       0.2357373570 bohr
     new conv_thr            =       0.0000010000 Ry

     new unit-cell volume =  10016.90239 a.u.^3 (  1484.35177 Ang^3 )

CELL_PARAMETERS (angstrom)
  11.662462249   0.000000105   0.003460792
   0.000000050   5.633214306  -0.000000020
  -4.344406403  -0.000000121  22.592564417

ATOMIC_POSITIONS (angstrom)
C        4.606291062   1.458373616   5.926383387
C       -0.947274348   4.274982091   5.371629224
C        2.711774871   4.174840673  16.669641805
C        8.265330243   1.358232199  17.224395965
C        3.368083636   1.184069341   6.757020920
C        0.290953473   4.000676535   4.540989084
C        3.949982296   4.449144949  15.839004272
C        7.027102423   1.632537755  18.055036105
C        2.327042730   2.081388559   6.811329384
C        1.331994126   4.898000300   4.486682316
C        4.991023202   3.551825730  15.784695808
C        5.986061770   0.735213990  18.109342874
H        2.453536942   3.032900056   6.306454238
H        1.205496057   0.216292564   4.991558210
H        4.864528991   2.600314234  16.289570954
H        6.112569876   5.416921726  17.604466982
C        1.187906802   1.809622459   7.452946107
C        2.471122016   4.626227571   3.845066430
C        6.130149093   3.823591830  15.143079082
C        4.846933876   1.006986719  18.750948725
H        0.379806630   2.527504951   7.465370995
H        3.279224925   5.344110742   3.832641573
H        6.938259300   3.105709338  15.130644163
H        4.038830970   0.289103548  18.763383616
C        1.018353337   0.615897387   8.109730129
C        2.640673325   3.432505150   3.188283653
C        6.299702559   5.017316903  14.486295060
C        4.677392607   2.200709140  19.407741539
C        2.067067185   5.356495744   8.109936987
C        1.591965416   2.539887796   3.188073582
C        5.250998744   0.276718545  14.486078171
C        5.726090479   3.093326493  19.407951607
H        1.960925443   4.428888075   8.662613629
H        1.698107325   1.612282530   2.635399725
H        5.357130452   1.204326215  13.933411560
H        5.619958608   4.020931760  19.960625467
C        3.188382595   5.628390983   7.442529814
C        0.470653821   2.811783540   3.855472667
C        4.129683334   0.004823306  15.153485345
C        6.847402071   2.821430749  18.740542488
H        3.994864701   4.901871796   7.423637839
H       -0.335839995   2.085265751   3.874375010
H        3.323191194   0.731342494  15.172387350
H        7.653895890   3.547948539  18.721650179
C       -0.304269769   0.626810848  10.623397990
C        3.963311900   3.443420079   0.674613017
C        7.622335701   5.006403441  11.972627202
C        3.354743996   2.189794211  21.921412172
C       -0.715178691   1.841809462  11.114254295
C        4.374222696   4.658417626   0.183761804
C        8.033244621   3.791404828  11.481760863
C        2.943833199   0.974796663  22.412263386
H       -1.097130684   2.578702167  10.420549473
H        4.756153494   5.395310616   0.877464153
H        8.415186577   3.054512122  12.175465683
H        2.561902402   0.237903674  21.718561036
C       -0.646219619   2.106800826  12.420245718
C       -0.039152835   4.923406175  21.470326935
C        7.964275514   3.526413464  10.175779471
C        7.357208730   0.709808115   1.125698254
H       -0.960853009   3.076290496  12.792054142
H        0.275479130   0.259682465  21.098513139
H        8.278908901   2.556923793   9.803961013
H        7.042576766   5.373531825   1.497512050
C       -0.188003553   1.189406941  13.334061365
C       -0.497370067   4.006015633  20.556500764
C        7.506069482   4.443807349   9.261953794
C        7.815425959   1.627198657   2.039514391
C        0.263485051   5.622265847  12.821132978
C       -0.948862326   2.805659017  21.069437989
C        7.054570845   0.010948442   9.774892211
C        8.266918222   2.827555272   1.526587200
H        0.669151684   4.891212222  13.511464311
H       -1.354524623   2.074605416  20.379103103
H        6.648904209   0.742002068   9.084550844
H        8.672590553   3.558608874   2.216912055
C        0.212540107   5.349791977  11.516844902
C       -0.897895982   2.533183634  22.373737237
C        7.105515788   0.283422313  11.079180287
C        8.215961915   3.100030656   0.222287955
H        0.577083483   4.400688989  11.137200443
H        3.081939637   1.584082992   0.160811671
H        6.740972413   1.232525301  11.458824746
H        4.236116258   4.049131297  22.435213518
C       -0.195214646   1.478172615  14.807102684
C       -0.490202765   4.294782265  19.083469110
C        7.513280578   4.155041675   7.788922508
C        7.808258660   1.338432025   3.512556079
O        4.881980487   2.684869417   5.698495092
O       10.439513878   5.501473656   5.602979974
O        2.436085443   2.948344873  16.897520066
O       -3.121457982   0.131740634  16.993045215
O        5.253733093   0.447575269   5.505559825
O       10.067762103   3.264182388   5.795913614
O        2.064322803   5.185639021  17.090465364
O       -2.749696170   2.369031901  16.800111578
O       -1.552909704   1.106115091   8.385523540
O        5.211942613   3.922722150   2.912489804
O        8.870975637   4.527099199  14.210501652
O        2.106113283   1.710492139  19.683535385
O       -0.686881640   4.384877113   8.823783750
O        4.345914272   1.568271250   2.474228544
O        8.004947572   1.248337177  13.772241442
O        2.972141623   4.064943039  20.121796645
O       -0.157279131   2.691436638  15.199736562
O       -0.528094067   5.508043988  18.690831221
O        7.475335027   2.941777652   7.396288627
O        7.846159996   0.125170301   3.905183938
O       -0.194525921   0.473796262  15.608890743
O       -0.490847854   3.290403778  18.281686575
O        7.512591854   5.159418028   6.987134449
O        7.808903750   2.342810512   4.314338614
S       -0.504682749   0.208464128   8.907655035
S        4.163715517   3.025071877   2.390358076
S        7.822738644   5.424750161  13.688370154
S        3.154350415   2.608142413  20.205667116
Ca       6.470195126   4.187619484   4.999233023
Ca       8.851290303   1.371012238   6.302240335
Ca       0.847860766   1.445594805  17.596782132
Ca      -1.533234408   4.262202052  16.293784854



     Writing output data file pwscf.save
     NEW-OLD atomic charge density approx. for the potential

     Check: negative/imaginary core charge=   -0.000008    0.000000

     negative rho (up, down):  5.509E-05 0.000E+00
     extrapolated charge  454.21868, renormalised to  464.00000

     total cpu time spent up to now is      462.8 secs

     per-process dynamical memory:   171.1 Mb

     Self-consistent Calculation

     iteration #  1     ecut=    50.00 Ry     beta=0.70
     Davidson diagonalization with overlap
     c_bands:  3 eigenvalues not converged
     c_bands:  2 eigenvalues not converged
     ethr =  1.00E-06,  avg # of iterations = 20.0

     negative rho (up, down):  3.825E-08 0.000E+00

     total cpu time spent up to now is      492.4 secs

     total energy              =   -2826.18412274 Ry
     Harris-Foulkes estimate   =   -2870.35676267 Ry
     estimated scf accuracy    <       1.32543568 Ry

     iteration #  2     ecut=    50.00 Ry     beta=0.70
     Davidson diagonalization with overlap
     ethr =  2.86E-04,  avg # of iterations =  7.0

     total cpu time spent up to now is      509.6 secs

     total energy              =   -2827.09136440 Ry
     Harris-Foulkes estimate   =   -2827.27620289 Ry
     estimated scf accuracy    <       0.64135756 Ry

     iteration #  3     ecut=    50.00 Ry     beta=0.70
     Davidson diagonalization with overlap
     ethr =  1.38E-04,  avg # of iterations =  1.0

     negative rho (up, down):  8.254E-06 0.000E+00

[...]

     negative rho (up, down):  3.620E-05 0.000E+00

     total cpu time spent up to now is     5066.7 secs

     total energy              =   -2827.26106351 Ry
     Harris-Foulkes estimate   =   -2827.26106355 Ry
     estimated scf accuracy    <       0.00000015 Ry

     iteration # 21     ecut=    50.00 Ry     beta=0.70
     Davidson diagonalization with overlap
     ethr =  3.14E-11,  avg # of iterations =  2.0

     negative rho (up, down):  3.588E-05 0.000E+00

     total cpu time spent up to now is     5073.1 secs

     total energy              =   -2827.26106349 Ry
     Harris-Foulkes estimate   =   -2827.26106351 Ry
     estimated scf accuracy    <       0.00000005 Ry

     iteration # 22     ecut=    50.00 Ry     beta=0.70
     Davidson diagonalization with overlap
     ethr =  1.10E-11,  avg # of iterations =  4.0

     negative rho (up, down):  3.625E-05 0.000E+00

     total cpu time spent up to now is     5082.6 secs

     total energy              =   -2827.26106350 Ry
     Harris-Foulkes estimate   =   -2827.26106352 Ry
     estimated scf accuracy    <       0.00000003 Ry

     iteration # 23     ecut=    50.00 Ry     beta=0.70
     Davidson diagonalization with overlap
     ethr =  6.65E-12,  avg # of iterations =  4.5

     negative rho (up, down):  3.638E-05 0.000E+00

     total cpu time spent up to now is     5091.1 secs

     total energy              =   -2827.26106351 Ry
     Harris-Foulkes estimate   =   -2827.26106351 Ry
     estimated scf accuracy    <       0.00000001 Ry

     iteration # 24     ecut=    50.00 Ry     beta=0.70
     Davidson diagonalization with overlap
     ethr =  2.46E-12,  avg # of iterations =  3.5

     negative rho (up, down):  3.640E-05 0.000E+00

     total cpu time spent up to now is     5097.8 secs

     End of self-consistent calculation

          k = 0.0000 0.0000 0.0000 ( 59257 PWs)   bands (ev):

   -36.8192 -36.8192 -36.8118 -36.8117 -21.4153 -21.4150 -21.4144 -21.4141
   -20.0873 -20.0871 -20.0729 -20.0728 -19.4710 -19.4709 -19.4705 -19.4704
   -18.7442 -18.7438 -18.7415 -18.7411 -18.4419 -18.4418 -18.2398 -18.2398
   -17.9675 -17.9673 -17.8992 -17.8990 -17.8656 -17.8653 -17.8438 -17.8434
   -17.4252 -17.4251 -17.3253 -17.3252 -16.8710 -16.8709 -16.8354 -16.8353
   -15.3326 -15.3244 -15.3045 -15.3022 -15.1664 -15.1600 -15.1002 -15.0926
   -13.1526 -13.1469 -13.1224 -13.1118 -12.5635 -12.5519 -12.5385 -12.5335
   -12.2244 -12.2235 -12.1321 -12.1318 -12.0388 -12.0387 -12.0251 -12.0248
   -10.7292 -10.7268 -10.7016 -10.6973  -9.4039  -9.4021  -9.3804  -9.3636
    -8.7897  -8.7864  -8.7119  -8.7100  -8.5588  -8.5439  -8.5436  -8.5339
    -8.1321  -8.1135  -8.1018  -8.0995  -7.5479  -7.5049  -7.3329  -7.3053
    -7.1770  -7.1718  -7.1583  -7.1324  -6.8270  -6.7215  -6.6843  -6.6205
    -6.2320  -6.0490  -6.0487  -5.9874  -5.4942  -5.4919  -5.4827  -5.4783
    -5.3478  -5.3447  -5.3048  -5.3008  -5.1176  -5.1144  -5.1047  -5.0692
    -5.0236  -4.9927  -4.9480  -4.9260  -4.7189  -4.7077  -4.6904  -4.6639
    -4.5997  -4.5163  -4.4640  -4.4566  -4.3835  -4.3595  -4.3292  -4.3288
    -4.2800  -4.2714  -4.2711  -4.1878  -4.1006  -4.0697  -4.0522  -4.0403
    -4.0291  -4.0041  -3.9504  -3.8636  -3.7910  -3.7179  -3.6946  -3.6550
    -3.6025  -3.5875  -3.5087  -3.4802  -3.4734  -3.4585  -3.3025  -3.2816
    -3.2784  -3.2780  -3.2109  -3.1644  -3.1603  -3.1322  -3.0372  -3.0018
    -2.8885  -2.8583  -2.8295  -2.7949  -2.5829  -2.5610  -2.4996  -2.4146
    -1.9569  -1.9545  -1.9290  -1.8867  -1.8563  -1.8527  -1.8199  -1.8159
    -1.7247  -1.7181  -1.7035  -1.6764  -1.5303  -1.4967  -1.3996  -1.3827
    -1.1644  -1.1612  -1.1300  -1.1248  -0.8436  -0.8168  -0.8140  -0.7968
    -0.7033  -0.6837  -0.6508  -0.6450  -0.6090  -0.6007  -0.5651  -0.5431
    -0.5363  -0.4766  -0.4088  -0.4040  -0.3217  -0.2818  -0.2385  -0.2164
    -0.0997  -0.0759  -0.0425  -0.0196  -0.0162   0.0143   0.0356   0.0442
     0.1989   0.2120   0.2306   0.2440   0.3099   0.3485   0.3928   0.4131
     0.4824   0.4860   0.5443   0.5668   0.9573   0.9626   0.9664   0.9726
     3.7290   3.8144   3.8637   3.8926   4.4844   4.5229   4.5392   4.6152
     4.7732   4.7904   4.8400   4.8904   5.0496   5.1541   5.1871   5.2677
     5.9003   5.9220   6.1429   6.1448   6.1997   6.2863   6.4998   6.6918
     6.6996   6.7223   6.8144   6.9133   7.0953   7.1475   7.2231   7.2367
     7.2512   7.2769   7.2923   7.3186   7.5806   7.7193   7.7372   7.8327
     7.8422   7.9002   7.9016   7.9591   7.9975   8.0087

          k = 0.0000-1.0420-0.0000 ( 59320 PWs)   bands (ev):

   -36.8161 -36.8161 -36.8148 -36.8147 -21.4052 -21.4050 -21.4045 -21.4043
   -20.0931 -20.0930 -20.0925 -20.0924 -19.4764 -19.4763 -19.4760 -19.4758
   -18.7631 -18.7625 -18.7625 -18.7620 -18.3212 -18.3211 -18.3208 -18.3207
   -17.9371 -17.9371 -17.9363 -17.9363 -17.7985 -17.7984 -17.7976 -17.7975
   -17.3887 -17.3887 -17.3883 -17.3882 -16.9114 -16.9114 -16.9113 -16.9113
   -15.2814 -15.2814 -15.2638 -15.2638 -15.0876 -15.0873 -15.0855 -15.0853
   -13.1464 -13.1462 -13.1167 -13.1164 -12.5348 -12.5345 -12.5315 -12.5313
   -12.4454 -12.4450 -12.3319 -12.3318 -12.2021 -12.2019 -12.2005 -12.2003
   -10.6537 -10.6536 -10.6235 -10.6234  -9.3312  -9.3311  -9.3128  -9.3126
    -8.8523  -8.8523  -8.7975  -8.7973  -8.6261  -8.6258  -8.6163  -8.6160
    -7.9993  -7.9993  -7.9584  -7.9583  -7.1301  -7.1291  -6.9488  -6.9486
    -6.8309  -6.8307  -6.8232  -6.8230  -6.6433  -6.6432  -6.5860  -6.5860
    -5.9193  -5.9192  -5.8806  -5.8805  -5.5257  -5.5256  -5.4744  -5.4743
    -5.2748  -5.2747  -5.2061  -5.2058  -5.1406  -5.1405  -5.1070  -5.1069
    -4.8285  -4.8284  -4.8101  -4.8100  -4.7918  -4.7917  -4.7176  -4.7176
    -4.5738  -4.5737  -4.5350  -4.5347  -4.3477  -4.3476  -4.3271  -4.3267
    -4.2191  -4.2187  -4.2098  -4.2096  -4.1817  -4.1814  -4.1293  -4.1292
    -4.0791  -4.0789  -4.0318  -4.0318  -3.9841  -3.9841  -3.9114  -3.9111
    -3.8716  -3.8715  -3.8373  -3.8372  -3.5392  -3.5392  -3.5080  -3.5080
    -3.2983  -3.2981  -3.2808  -3.2806  -3.1085  -3.1082  -3.0538  -3.0538
    -2.9548  -2.9547  -2.9318  -2.9317  -2.6164  -2.6163  -2.5373  -2.5372
    -2.1204  -2.1202  -2.0053  -2.0051  -1.9851  -1.9846  -1.9524  -1.9521
    -1.7844  -1.7843  -1.7762  -1.7761  -1.5279  -1.5278  -1.5170  -1.5169
    -1.0903  -1.0898  -1.0860  -1.0855  -0.7782  -0.7778  -0.7111  -0.7110
    -0.6122  -0.6122  -0.5879  -0.5878  -0.5523  -0.5519  -0.5122  -0.5120
    -0.3506  -0.3505  -0.3215  -0.3213  -0.1875  -0.1873  -0.1358  -0.1358
    -0.0388  -0.0388   0.0136   0.0137   0.0703   0.0704   0.1036   0.1037
     0.1588   0.1589   0.2382   0.2383   0.2897   0.2898   0.3245   0.3247
     0.5468   0.5469   0.5533   0.5533   0.7281   0.7282   0.7582   0.7582
     3.6889   3.6891   3.7211   3.7213   4.3787   4.3789   4.4180   4.4181
     4.8775   4.8780   4.9556   4.9562   5.2302   5.2303   5.3141   5.3147
     6.1523   6.1524   6.2829   6.2831   6.5379   6.5384   6.5582   6.5583
     6.5912   6.5915   6.9016   6.9021   7.0712   7.0714   7.2277   7.2282
     7.3994   7.4000   7.5350   7.5350   7.6565   7.6572   7.6909   7.6911
     7.8305   7.8311   7.9651   7.9653   8.0325   8.0331

     the Fermi energy is     2.2963 ev

!    total energy              =   -2827.26106351 Ry
     Harris-Foulkes estimate   =   -2827.26106351 Ry
     estimated scf accuracy    <          1.2E-09 Ry

     total all-electron energy =    -16513.365924 Ry

     The total energy is the sum of the following terms:

     one-electron contribution =   -2291.62833163 Ry
     hartree contribution      =    1324.69466359 Ry
     xc contribution           =    -523.50811763 Ry
     ewald contribution        =    -373.68748976 Ry
     one-center paw contrib.   =    -963.13178808 Ry
     smearing contrib. (-TS)   =      -0.00000000 Ry

     convergence has been achieved in  24 iterations

     negative rho (up, down):  3.640E-05 0.000E+00

     Forces acting on atoms (Ry/au):

     atom    1 type  2   force =     0.00040886    0.00021451   -0.00066224
     atom    2 type  2   force =    -0.00034906    0.00021770    0.00063103
     atom    3 type  2   force =    -0.00040886   -0.00021451    0.00066224
     atom    4 type  2   force =     0.00034906   -0.00021770   -0.00063103
     atom    5 type  2   force =    -0.00005245    0.00069443    0.00005835
     atom    6 type  2   force =     0.00005368    0.00065528   -0.00008145
     atom    7 type  2   force =     0.00005245   -0.00069443   -0.00005835
     atom    8 type  2   force =    -0.00005368   -0.00065528    0.00008145
     atom    9 type  2   force =     0.00036541   -0.00081747    0.00099063
     atom   10 type  2   force =    -0.00038881   -0.00078526   -0.00097597
     atom   11 type  2   force =    -0.00036541    0.00081747   -0.00099063
     atom   12 type  2   force =     0.00038881    0.00078526    0.00097597
     atom   13 type  1   force =    -0.00010600   -0.00013090   -0.00032026
     atom   14 type  1   force =     0.00010320   -0.00013817    0.00030044
     atom   15 type  1   force =     0.00010600    0.00013090    0.00032026
     atom   16 type  1   force =    -0.00010320    0.00013817   -0.00030044
     atom   17 type  2   force =     0.00020324    0.00028371   -0.00003109
     atom   18 type  2   force =    -0.00016998    0.00025290   -0.00000428
     atom   19 type  2   force =    -0.00020324   -0.00028371    0.00003109
     atom   20 type  2   force =     0.00016998   -0.00025290    0.00000428
     atom   21 type  1   force =     0.00050932    0.00040785   -0.00004623
     atom   22 type  1   force =    -0.00050825    0.00040681    0.00004535
     atom   23 type  1   force =    -0.00050932   -0.00040785    0.00004623
     atom   24 type  1   force =     0.00050825   -0.00040681   -0.00004535
     atom   25 type  2   force =    -0.00038315   -0.00085527   -0.00044692
     atom   26 type  2   force =     0.00041029   -0.00083824    0.00044889
     atom   27 type  2   force =     0.00038315    0.00085527    0.00044692
     atom   28 type  2   force =    -0.00041029    0.00083824   -0.00044889
     atom   29 type  2   force =     0.00008763   -0.00000903   -0.00010802
     atom   30 type  2   force =    -0.00006176   -0.00003004    0.00009345
     atom   31 type  2   force =    -0.00008763    0.00000903    0.00010802
     atom   32 type  2   force =     0.00006176    0.00003004   -0.00009345
     atom   33 type  1   force =     0.00042485   -0.00044136   -0.00005980
     atom   34 type  1   force =    -0.00041989   -0.00043040    0.00006380
     atom   35 type  1   force =    -0.00042485    0.00044136    0.00005980
     atom   36 type  1   force =     0.00041989    0.00043040   -0.00006380
     atom   37 type  2   force =    -0.00022165    0.00026015    0.00045023
     atom   38 type  2   force =     0.00020937    0.00030114   -0.00042831
     atom   39 type  2   force =     0.00022165   -0.00026015   -0.00045023
     atom   40 type  2   force =    -0.00020937   -0.00030114    0.00042831
     atom   41 type  1   force =    -0.00029924    0.00016941   -0.00078864
     atom   42 type  1   force =     0.00029169    0.00017419    0.00077635
     atom   43 type  1   force =     0.00029924   -0.00016941    0.00078864
     atom   44 type  1   force =    -0.00029169   -0.00017419   -0.00077635
     atom   45 type  2   force =    -0.00092953    0.00028552   -0.00039403
     atom   46 type  2   force =     0.00085312    0.00009528    0.00037352
     atom   47 type  2   force =     0.00092953   -0.00028552    0.00039403
     atom   48 type  2   force =    -0.00085312   -0.00009528   -0.00037352
     atom   49 type  2   force =     0.00022765   -0.00001595   -0.00046123
     atom   50 type  2   force =    -0.00016790    0.00011771    0.00053264
     atom   51 type  2   force =    -0.00022765    0.00001595    0.00046123
     atom   52 type  2   force =     0.00016790   -0.00011771   -0.00053264
     atom   53 type  1   force =    -0.00014094    0.00061442   -0.00015684
     atom   54 type  1   force =     0.00010560    0.00056932    0.00011958
     atom   55 type  1   force =     0.00014094   -0.00061442    0.00015684
     atom   56 type  1   force =    -0.00010560   -0.00056932   -0.00011958
     atom   57 type  2   force =     0.00074940    0.00008211   -0.00031042
     atom   58 type  2   force =    -0.00080913   -0.00004218    0.00018275
     atom   59 type  2   force =    -0.00074940   -0.00008211    0.00031042
     atom   60 type  2   force =     0.00080913    0.00004218   -0.00018275
     atom   61 type  1   force =     0.00012101   -0.00044057    0.00002023
     atom   62 type  1   force =    -0.00011127   -0.00041150   -0.00002682
     atom   63 type  1   force =    -0.00012101    0.00044057   -0.00002023
     atom   64 type  1   force =     0.00011127    0.00041150    0.00002682
     atom   65 type  2   force =    -0.00035247   -0.00022820    0.00028684
     atom   66 type  2   force =     0.00046126   -0.00006043   -0.00020964
     atom   67 type  2   force =     0.00035247    0.00022820   -0.00028684
     atom   68 type  2   force =    -0.00046126    0.00006043    0.00020964
     atom   69 type  2   force =     0.00006343    0.00097608    0.00009440
     atom   70 type  2   force =    -0.00009050    0.00085470   -0.00016468
     atom   71 type  2   force =    -0.00006343   -0.00097608   -0.00009440
     atom   72 type  2   force =     0.00009050   -0.00085470    0.00016468
     atom   73 type  1   force =    -0.00061157    0.00062574    0.00006746
     atom   74 type  1   force =     0.00064288    0.00066125   -0.00002728
     atom   75 type  1   force =     0.00061157   -0.00062574   -0.00006746
     atom   76 type  1   force =    -0.00064288   -0.00066125    0.00002728
     atom   77 type  2   force =     0.00030390   -0.00087576   -0.00035682
     atom   78 type  2   force =    -0.00024106   -0.00075144    0.00046542
     atom   79 type  2   force =    -0.00030390    0.00087576    0.00035682
     atom   80 type  2   force =     0.00024106    0.00075144   -0.00046542
     atom   81 type  1   force =    -0.00008288   -0.00005516    0.00024042
     atom   82 type  1   force =     0.00005205   -0.00007360   -0.00022645
     atom   83 type  1   force =     0.00008288    0.00005516   -0.00024042
     atom   84 type  1   force =    -0.00005205    0.00007360    0.00022645
     atom   85 type  2   force =    -0.00098019   -0.00015462    0.00037958
     atom   86 type  2   force =     0.00099115   -0.00027861   -0.00041168
     atom   87 type  2   force =     0.00098019    0.00015462   -0.00037958
     atom   88 type  2   force =    -0.00099115    0.00027861    0.00041168
     atom   89 type  3   force =     0.00010810   -0.00055537    0.00008273
     atom   90 type  3   force =    -0.00012078   -0.00052365   -0.00007489
     atom   91 type  3   force =    -0.00010810    0.00055537   -0.00008273
     atom   92 type  3   force =     0.00012078    0.00052365    0.00007489
     atom   93 type  3   force =     0.00032659   -0.00042965   -0.00018502
     atom   94 type  3   force =    -0.00035006   -0.00047850    0.00020377
     atom   95 type  3   force =    -0.00032659    0.00042965    0.00018502
     atom   96 type  3   force =     0.00035006    0.00047850   -0.00020377
     atom   97 type  3   force =     0.00028837   -0.00036121    0.00046045
     atom   98 type  3   force =    -0.00033450   -0.00042114   -0.00048130
     atom   99 type  3   force =    -0.00028837    0.00036121   -0.00046045
     atom  100 type  3   force =     0.00033450    0.00042114    0.00048130
     atom  101 type  3   force =    -0.00030160   -0.00008211   -0.00061535
     atom  102 type  3   force =     0.00033303   -0.00024817    0.00063179
     atom  103 type  3   force =     0.00030160    0.00008211    0.00061535
     atom  104 type  3   force =    -0.00033303    0.00024817   -0.00063179
     atom  105 type  3   force =    -0.00041736    0.00045998    0.00025650
     atom  106 type  3   force =     0.00042599    0.00048314   -0.00026497
     atom  107 type  3   force =     0.00041736   -0.00045998   -0.00025650
     atom  108 type  3   force =    -0.00042599   -0.00048314    0.00026497
     atom  109 type  3   force =    -0.00014037   -0.00032712    0.00063481
     atom  110 type  3   force =     0.00014156   -0.00025725   -0.00059526
     atom  111 type  3   force =     0.00014037    0.00032712   -0.00063481
     atom  112 type  3   force =    -0.00014156    0.00025725    0.00059526
     atom  113 type  4   force =     0.00031376    0.00041305    0.00016424
     atom  114 type  4   force =    -0.00029241    0.00068362   -0.00015632
     atom  115 type  4   force =    -0.00031376   -0.00041305   -0.00016424
     atom  116 type  4   force =     0.00029241   -0.00068362    0.00015632
     atom  117 type  5   force =     0.00003573   -0.00065055    0.00060684
     atom  118 type  5   force =    -0.00002655   -0.00064039   -0.00060812
     atom  119 type  5   force =    -0.00003573    0.00065055   -0.00060684
     atom  120 type  5   force =     0.00002655    0.00064039    0.00060812

     Total force =     0.008118     Total SCF correction =     0.000101


     entering subroutine stress ...


     negative rho (up, down):  3.640E-05 0.000E+00
          total   stress  (Ry/bohr**3)                   (kbar)     P=   -0.06
  -0.00000029   0.00000000   0.00000045         -0.04      0.00      0.07
   0.00000000   0.00000005  -0.00000013          0.00      0.01     -0.02
   0.00000045  -0.00000013  -0.00000109          0.07     -0.02     -0.16


     Writing output data file pwscf.save
 
     init_run     :     13.49s CPU     13.94s WALL (       2 calls)
     electrons    :   4199.92s CPU   4310.73s WALL (      31 calls)
     update_pot   :    135.44s CPU    137.63s WALL (      29 calls)
     forces       :    123.05s CPU    127.46s WALL (      31 calls)
     stress       :    487.01s CPU    494.41s WALL (      31 calls)

     Called by init_run:
     wfcinit      :      4.60s CPU      4.73s WALL (       2 calls)
     potinit      :      2.95s CPU      2.99s WALL (       2 calls)

     Called by electrons:
     c_bands      :   3207.73s CPU   3260.61s WALL (     459 calls)
     sum_band     :    453.65s CPU    488.89s WALL (     459 calls)
     v_of_rho     :     26.74s CPU     28.12s WALL (     481 calls)
     newd         :    122.29s CPU    137.85s WALL (     481 calls)
     PAW_pot      :    148.23s CPU    149.64s WALL (     510 calls)
     mix_rho      :    260.42s CPU    263.94s WALL (     459 calls)

     Called by c_bands:
     init_us_2    :     19.82s CPU     20.40s WALL (    2022 calls)
     cegterg      :   3152.72s CPU   3205.11s WALL (     931 calls)

     Called by sum_band:
     sum_band:bec :      2.24s CPU      2.48s WALL (     976 calls)
     addusdens    :    162.43s CPU    194.20s WALL (     459 calls)

     Called by *egterg:
     h_psi        :   1413.63s CPU   1428.61s WALL (    4635 calls)
     s_psi        :    193.55s CPU    195.27s WALL (    4635 calls)
     g_psi        :      5.09s CPU      5.06s WALL (    3700 calls)
     cdiaghg      :    996.74s CPU   1012.92s WALL (    4542 calls)

     Called by h_psi:
     add_vuspsi   :    199.35s CPU    201.95s WALL (    4635 calls)

     General routines
     calbec       :    323.77s CPU    327.50s WALL (    5921 calls)
     fft          :     42.35s CPU     44.36s WALL (    8412 calls)
     ffts         :    175.57s CPU    177.81s WALL (   88229 calls)
     fftw         :   1118.24s CPU   1104.32s WALL ( 1657892 calls)
     interpolate  :      5.84s CPU      6.17s WALL (     940 calls)
 
     Parallel routines
     fft_scatter  :   1105.89s CPU   1007.95s WALL ( 1754533 calls)
 
     PWSCF        :     1h23m CPU        1h25m WALL

 
   This run was terminated on:   8:49:35  14Nov2016            

=------------------------------------------------------------------------------=
   JOB DONE.
=------------------------------------------------------------------------------=
