
     Program PWSCF v.5.4.0 starts on 13Nov2016 at 18:23:58 

     This program is part of the open-source Quantum ESPRESSO suite
     for quantum simulation of materials; please cite
         "P. Giannozzi et al., J. Phys.:Condens. Matter 21 395502 (2009);
          URL http://www.quantum-espresso.org", 
     in publications or presentations arising from this work. More details at
     http://www.quantum-espresso.org/quote

     Parallel version (MPI), running on    48 processors
     R & G space division:  proc/nbgrp/npool/nimage =      48
     Waiting for input...
     Reading input from standard input

     Current dimensions of program PWSCF are:
     Max number of different atomic species (ntypx) = 10
     Max number of k-points (npk) =  40000
     Max angular momentum in pseudopotentials (lmaxx) =  3
               file H.pbesol-kjpaw_psl.1.0.0.UPF: wavefunction(s)  1S renormalized
               file C.pbesol-n-kjpaw_psl.1.0.0.UPF: wavefunction(s)  2S 2P renormalized
               file O.pbesol-n-kjpaw_psl.1.0.0.UPF: wavefunction(s)  2S 2P renormalized
               file S.pbesol-n-kjpaw_psl.1.0.0.UPF: wavefunction(s)  3S 3P renormalized
               file Ca.pbesol-spn-kjpaw_psl.1.0.0.UPF: wavefunction(s)  3S renormalized

     gamma-point specific algorithms are used

     Subspace diagonalization in iterative solution of the eigenvalue problem:
     one sub-group per band group will be used
     scalapack distributed-memory algorithm (size of sub-group:  4*  4 procs)

 
     Parallelization info
     --------------------
     sticks:   dense  smooth     PW     G-vecs:    dense   smooth      PW
     Min         134      76     18                22642     9754    1208
     Max         136      78     20                22662     9814    1244
     Sum        6445    3677    919              1086993   469705   58723
     Tot        3223    1839    460
 


     bravais-lattice index     =            0
     lattice parameter (alat)  =      21.9573  a.u.
     unit-cell volume          =    9828.7616 (a.u.)^3
     number of atoms/cell      =          120
     number of atomic types    =            5
     number of electrons       =       464.00
     number of Kohn-Sham states=          278
     kinetic-energy cutoff     =      50.0000  Ry
     charge density cutoff     =     350.0000  Ry
     convergence threshold     =      1.0E-06
     mixing beta               =       0.7000
     number of iterations used =            8  local-TF  mixing
     Exchange-correlation      =  SLA  PW   PSX  PSC ( 1  4 10  8 0 0)
     nstep                     =          100


     celldm(1)=  21.957295  celldm(2)=   0.000000  celldm(3)=   0.000000
     celldm(4)=   0.000000  celldm(5)=   0.000000  celldm(6)=   0.000000

     crystal axes: (cart. coord. in units of alat)
               a(1) = (   1.000000   0.000000   0.000000 )  
               a(2) = (   0.000000   0.479091   0.000000 )  
               a(3) = (  -0.373087   0.000000   1.937958 )  

     reciprocal axes: (cart. coord. in units 2 pi/alat)
               b(1) = (  1.000000  0.000000  0.192515 )  
               b(2) = (  0.000000  2.087287  0.000000 )  
               b(3) = (  0.000000  0.000000  0.516007 )  


     PseudoPot. # 1 for  H read from file:
     /scratch/ongari/0_LIBRARIES/2_espresso/pbesol.1.0.0/H.pbesol-kjpaw_psl.1.0.0.UPF
     MD5 check sum: 9bb220807ff6ce434749bbd582a132b2
     Pseudo is Projector augmented-wave, Zval =  1.0
     Generated using "atomic" code by A. Dal Corso  v.5.3.0 svn rev. 11974
     Shape of augmentation charge: PSQ
     Using radial grid of  929 points,  2 beta functions with: 
                l(1) =   0
                l(2) =   0
     Q(r) pseudized with 0 coefficients 


     PseudoPot. # 2 for  C read from file:
     /scratch/ongari/0_LIBRARIES/2_espresso/pbesol.1.0.0/C.pbesol-n-kjpaw_psl.1.0.0.UPF
     MD5 check sum: 86768611ba5d8849702bc856181df28e
     Pseudo is Projector augmented-wave + core cor, Zval =  4.0
     Generated using "atomic" code by A. Dal Corso  v.5.3.0 svn rev. 11974
     Shape of augmentation charge: PSQ
     Using radial grid of 1073 points,  4 beta functions with: 
                l(1) =   0
                l(2) =   0
                l(3) =   1
                l(4) =   1
     Q(r) pseudized with 0 coefficients 


     PseudoPot. # 3 for  O read from file:
     /scratch/ongari/0_LIBRARIES/2_espresso/pbesol.1.0.0/O.pbesol-n-kjpaw_psl.1.0.0.UPF
     MD5 check sum: ac2c84bd0ca0b44fb3c4ef16e38425d5
     Pseudo is Projector augmented-wave + core cor, Zval =  6.0
     Generated using "atomic" code by A. Dal Corso  v.5.3.0 svn rev. 11974
     Shape of augmentation charge: PSQ
     Using radial grid of 1095 points,  4 beta functions with: 
                l(1) =   0
                l(2) =   0
                l(3) =   1
                l(4) =   1
     Q(r) pseudized with 0 coefficients 


     PseudoPot. # 4 for  S read from file:
     /scratch/ongari/0_LIBRARIES/2_espresso/pbesol.1.0.0/S.pbesol-n-kjpaw_psl.1.0.0.UPF
     MD5 check sum: 78ef03859d75f916a8166625c57f8f3f
     Pseudo is Projector augmented-wave + core cor, Zval =  6.0
     Generated using "atomic" code by A. Dal Corso  v.5.3.0 svn rev. 11974
     Shape of augmentation charge: PSQ
     Using radial grid of 1151 points,  6 beta functions with: 
                l(1) =   0
                l(2) =   0
                l(3) =   1
                l(4) =   1
                l(5) =   2
                l(6) =   2
     Q(r) pseudized with 0 coefficients 


     PseudoPot. # 5 for Ca read from file:
     /scratch/ongari/0_LIBRARIES/2_espresso/pbesol.1.0.0/Ca.pbesol-spn-kjpaw_psl.1.0.0.UPF
     MD5 check sum: c8fc22ddaefc67ffd405aacc3b24f771
     Pseudo is Projector augmented-wave + core cor, Zval = 10.0
     Generated using "atomic" code by A. Dal Corso  v.5.3.0 svn rev. 11974
     Shape of augmentation charge: PSQ
     Using radial grid of 1169 points,  6 beta functions with: 
                l(1) =   0
                l(2) =   0
                l(3) =   1
                l(4) =   1
                l(5) =   2
                l(6) =   2
     Q(r) pseudized with 0 coefficients 


     atomic species   valence    mass     pseudopotential
        H              1.00     1.00800      H( 1.00)
        C              4.00    12.01100      C( 1.00)
        O              6.00    15.99900      O( 1.00)
        S              6.00    32.06600      S( 1.00)
        Ca            10.00    40.07800     Ca( 1.00)

      2 Sym. Ops., with inversion, found
          (note:  2 additional sym.ops. were found but ignored
           their fractional translations are incommensurate with FFT grid)


   Cartesian axes

     site n.     atom                  positions (alat units)
         1           C   tau(   1) = (   0.3954515   0.1238930   0.5077449  )
         2           C   tau(   2) = (  -0.0819946   0.3634384   0.4612343  )
         3           C   tau(   3) = (   0.2314623   0.3551978   1.4302135  )
         4           C   tau(   4) = (   0.7089076   0.1156524   1.4767241  )
         5           C   tau(   5) = (   0.2882101   0.1011360   0.5796434  )
         6           C   tau(   6) = (   0.0252468   0.3406815   0.3893358  )
         7           C   tau(   7) = (   0.3387037   0.3779548   1.3583150  )
         8           C   tau(   8) = (   0.6016662   0.1384094   1.5486226  )
         9           C   tau(   9) = (   0.2001368   0.1815273   0.5815815  )
        10           C   tau(  10) = (   0.1133201   0.4210727   0.3873977  )
        11           C   tau(  11) = (   0.4267770   0.2975635   1.3563769  )
        12           C   tau(  12) = (   0.5135929   0.0580181   1.5505607  )
        13           H   tau(  13) = (   0.2095866   0.2532949   0.5434036  )
        14           H   tau(  14) = (   0.1038703   0.0137495   0.4255756  )
        15           H   tau(  15) = (   0.4173272   0.2257959   1.3945547  )
        16           H   tau(  16) = (   0.5230436   0.4653413   1.5123828  )
        17           C   tau(  17) = (   0.0977185   0.1572375   0.6393328  )
        18           C   tau(  18) = (   0.2157376   0.3967829   0.3296464  )
        19           C   tau(  19) = (   0.5291945   0.3218533   1.2986256  )
        20           C   tau(  20) = (   0.4111754   0.0823079   1.6083112  )
        21           H   tau(  21) = (   0.0364325   0.2114224   0.6403011  )
        22           H   tau(  22) = (   0.2770244   0.4509678   0.3286781  )
        23           H   tau(  23) = (   0.5904814   0.2676684   1.2976565  )
        24           H   tau(  24) = (   0.3498885   0.0281230   1.6092802  )
        25           C   tau(  25) = (   0.0869992   0.0525083   0.6955333  )
        26           C   tau(  26) = (   0.2264577   0.2920537   0.2734459  )
        27           C   tau(  27) = (   0.5399138   0.4265825   1.2424251  )
        28           C   tau(  28) = (   0.4004561   0.1870371   1.6645125  )
        29           C   tau(  29) = (   0.1764771   0.4509678   0.6982460  )
        30           C   tau(  30) = (   0.1369799   0.2114224   0.2707332  )
        31           C   tau(  31) = (   0.4504368   0.0281230   1.2397115  )
        32           C   tau(  32) = (   0.4899331   0.2676684   1.6672252  )
        33           H   tau(  33) = (   0.1684809   0.3812605   0.7403002  )
        34           H   tau(  34) = (   0.1449760   0.1417151   0.2286790  )
        35           H   tau(  35) = (   0.4584321   0.0978303   1.1976582  )
        36           H   tau(  36) = (   0.4819378   0.3373757   1.7092794  )
        37           C   tau(  37) = (   0.2773429   0.4748746   0.6381693  )
        38           C   tau(  38) = (   0.0361141   0.2353292   0.3308091  )
        39           C   tau(  39) = (   0.3495710   0.0042163   1.2997883  )
        40           C   tau(  40) = (   0.5907989   0.2437617   1.6071485  )
        41           H   tau(  41) = (   0.3383035   0.4204978   0.6368129  )
        42           H   tau(  42) = (  -0.0248475   0.1809524   0.3321663  )
        43           H   tau(  43) = (   0.2886095   0.0585930   1.3011455  )
        44           H   tau(  44) = (   0.6517604   0.2981384   1.6057921  )
        45           C   tau(  45) = (  -0.0264250   0.0536099   0.9112279  )
        46           C   tau(  46) = (   0.3398819   0.2931554   0.0577513  )
        47           C   tau(  47) = (   0.6533388   0.4254809   1.0267305  )
        48           C   tau(  48) = (   0.2870311   0.1859355   1.8802071  )
        49           C   tau(  49) = (  -0.0634496   0.1600165   0.9497930  )
        50           C   tau(  50) = (   0.3769065   0.3995619   0.0191862  )
        51           C   tau(  51) = (   0.6903634   0.3190743   0.9881645  )
        52           C   tau(  52) = (   0.2500065   0.0795289   1.9187722  )
        53           H   tau(  53) = (  -0.0924393   0.2156868   0.8972744  )
        54           H   tau(  54) = (   0.4058954   0.4552322   0.0717048  )
        55           H   tau(  55) = (   0.7193523   0.2634040   1.0406832  )
        56           H   tau(  56) = (   0.2210176   0.0238586   1.8662536  )
        57           C   tau(  57) = (  -0.0572961   0.1838269   1.0674275  )
        58           C   tau(  58) = (  -0.0023340   0.4233723   1.8395101  )
        59           C   tau(  59) = (   0.6842090   0.2952639   0.8705309  )
        60           C   tau(  60) = (   0.6292470   0.0557185   0.0984483  )
        61           H   tau(  61) = (  -0.0810686   0.2568408   1.0953336  )
        62           H   tau(  62) = (   0.0214385   0.0172954   1.8116031  )
        63           H   tau(  63) = (   0.7079815   0.2222500   0.8426239  )
        64           H   tau(  64) = (   0.6054745   0.4617955   0.1263553  )
        65           C   tau(  65) = (  -0.0165208   0.1012798   1.1433950  )
        66           C   tau(  66) = (  -0.0431093   0.3408252   1.7635417  )
        67           C   tau(  67) = (   0.6434346   0.3778111   0.7945625  )
        68           C   tau(  68) = (   0.6700223   0.1382656   0.1744158  )
        69           C   tau(  69) = (   0.0243018   0.4745398   1.1032799  )
        70           C   tau(  70) = (  -0.0839319   0.2349944   1.8036577  )
        71           C   tau(  71) = (   0.6026112   0.0045510   0.8346785  )
        72           C   tau(  72) = (   0.7108449   0.2440965   0.1343007  )
        73           H   tau(  73) = (   0.0550653   0.4196354   1.1554104  )
        74           H   tau(  74) = (  -0.1146954   0.1800900   1.7515263  )
        75           H   tau(  75) = (   0.5718477   0.0594554   0.7825471  )
        76           H   tau(  76) = (   0.7416092   0.2990008   0.1864312  )
        77           C   tau(  77) = (   0.0196733   0.4502492   0.9860336  )
        78           C   tau(  78) = (  -0.0793034   0.2107037   1.9209040  )
        79           C   tau(  79) = (   0.6072397   0.0288417   0.9519248  )
        80           C   tau(  80) = (   0.7062172   0.2683871   0.0170544  )
        81           H   tau(  81) = (   0.0474323   0.3789609   0.9571575  )
        82           H   tau(  82) = (   0.2660238   0.1394155   0.0118217  )
        83           H   tau(  83) = (   0.5794807   0.1001300   0.9808009  )
        84           H   tau(  84) = (   0.3608892   0.3396754   1.9261367  )
        85           C   tau(  85) = (  -0.0171327   0.1257133   1.2707194  )
        86           C   tau(  86) = (  -0.0424974   0.3652587   1.6362182  )
        87           C   tau(  87) = (   0.6440465   0.3533776   0.6672390  )
        88           C   tau(  88) = (   0.6694104   0.1138322   0.3017402  )
        89           O   tau(  89) = (   0.4183040   0.2278080   0.4887721  )
        90           O   tau(  90) = (   0.8951529   0.4673535   0.4802071  )
        91           O   tau(  91) = (   0.2086098   0.2512828   1.4491854  )
        92           O   tau(  92) = (  -0.2682399   0.0117374   1.4577513  )
        93           O   tau(  93) = (   0.4499712   0.0387106   0.4723193  )
        94           O   tau(  94) = (   0.8634858   0.2782560   0.4966599  )
        95           O   tau(  95) = (   0.1769418   0.4403802   1.4656391  )
        96           O   tau(  96) = (  -0.2365719   0.2008348   1.4412985  )
        97           O   tau(  97) = (  -0.1331044   0.0938060   0.7194478  )
        98           O   tau(  98) = (   0.4465613   0.3333514   0.2495314  )
        99           O   tau(  99) = (   0.7600182   0.3852848   1.2185106  )
       100           O   tau( 100) = (   0.1803517   0.1457394   1.6884270  )
       101           O   tau( 101) = (  -0.0591051   0.3734993   0.7568502  )
       102           O   tau( 102) = (   0.3725620   0.1339539   0.2121290  )
       103           O   tau( 103) = (   0.6860190   0.1055916   1.1811082  )
       104           O   tau( 104) = (   0.2543510   0.3451370   1.7258294  )
       105           O   tau( 105) = (  -0.0138571   0.2284303   1.3035673  )
       106           O   tau( 106) = (  -0.0457730   0.4679757   1.6033694  )
       107           O   tau( 107) = (   0.6407701   0.2506605   0.6343911  )
       108           O   tau( 108) = (   0.6726868   0.0111151   0.3345881  )
       109           O   tau( 109) = (  -0.0170759   0.0407228   1.3384705  )
       110           O   tau( 110) = (  -0.0425542   0.2802682   1.5684671  )
       111           O   tau( 111) = (   0.6439897   0.4383681   0.5994879  )
       112           O   tau( 112) = (   0.6694672   0.1988226   0.3694913  )
       113           S   tau( 113) = (  -0.0438185   0.0174391   0.7638266  )
       114           S   tau( 114) = (   0.3572754   0.2569845   0.2051526  )
       115           S   tau( 115) = (   0.6707315   0.4616517   1.1741318  )
       116           S   tau( 116) = (   0.2696384   0.2221063   1.7328058  )
       117           Ca  tau( 117) = (   0.5546840   0.3561127   0.4286179  )
       118           Ca  tau( 118) = (   0.7587720   0.1165673   0.5403613  )
       119           Ca  tau( 119) = (   0.0722290   0.1229781   1.5093396  )
       120           Ca  tau( 120) = (  -0.1318591   0.3625236   1.3975971  )

     number of k points=     1  gaussian smearing, width (Ry)=  0.0200
                       cart. coord. in units 2pi/alat
        k(    1) = (   0.0000000   0.0000000   0.0000000), wk =   2.0000000

     Dense  grid:   543497 G-vectors     FFT dimensions: ( 135,  64, 270)

     Smooth grid:   234853 G-vectors     FFT dimensions: ( 100,  48, 200)

     Largest allocated arrays     est. size (Mb)     dimensions
        Kohn-Sham Wavefunctions         2.62 Mb     (     618,  278)
        NL pseudopotentials             8.00 Mb     (     618,  848)
        Each V/rho on FFT grid          0.79 Mb     (   51840)
        Each G-vector array             0.09 Mb     (   11328)
        G-vector shells                 0.09 Mb     (   11328)
     Largest temporary arrays     est. size (Mb)     dimensions
        Auxiliary wavefunctions         5.24 Mb     (     618, 1112)
        Each subspace H/S matrix        0.59 Mb     (     278,  278)
        Each <psi_i|beta_j> matrix      1.80 Mb     (     848,  278)
        Arrays for rho mixing           6.33 Mb     (   51840,    8)

     Check: negative/imaginary core charge=   -0.000008    0.000000

     Initial potential from superposition of free atoms

     starting charge  463.97874, renormalised to  464.00000
     Starting wfc are  400 randomized atomic wfcs
     Checking if some PAW data can be deallocated... 

     total cpu time spent up to now is        4.8 secs

     per-process dynamical memory:   112.3 Mb

     Self-consistent Calculation

     iteration #  1     ecut=    50.00 Ry     beta=0.70
     Davidson diagonalization with overlap
     ethr =  1.00E-02,  avg # of iterations =  5.0

     total cpu time spent up to now is        8.0 secs

     total energy              =   -2825.11456615 Ry
     Harris-Foulkes estimate   =   -2832.45307331 Ry
     estimated scf accuracy    <      18.58644068 Ry

     iteration #  2     ecut=    50.00 Ry     beta=0.70
     Davidson diagonalization with overlap
     ethr =  4.01E-03,  avg # of iterations =  2.0

     total cpu time spent up to now is        9.9 secs

     total energy              =   -2824.38506108 Ry
     Harris-Foulkes estimate   =   -2826.36938090 Ry
     estimated scf accuracy    <       3.98371136 Ry

     iteration #  3     ecut=    50.00 Ry     beta=0.70
     Davidson diagonalization with overlap
     ethr =  8.59E-04,  avg # of iterations =  7.0

     total cpu time spent up to now is       14.3 secs

     total energy              =   -2826.35423744 Ry
     Harris-Foulkes estimate   =   -2826.78051898 Ry
     estimated scf accuracy    <       2.62397383 Ry

     iteration #  4     ecut=    50.00 Ry     beta=0.70
     Davidson diagonalization with overlap
     ethr =  5.66E-04,  avg # of iterations =  1.0

     total cpu time spent up to now is       16.1 secs

     total energy              =   -2825.34244800 Ry
     Harris-Foulkes estimate   =   -2826.38596445 Ry
     estimated scf accuracy    <       1.66150013 Ry

     iteration #  5     ecut=    50.00 Ry     beta=0.70
     Davidson diagonalization with overlap
     ethr =  3.58E-04,  avg # of iterations =  4.0

     total cpu time spent up to now is       19.0 secs

     total energy              =   -2826.05316904 Ry
     Harris-Foulkes estimate   =   -2826.56097339 Ry
     estimated scf accuracy    <       1.67787269 Ry

     iteration #  6     ecut=    50.00 Ry     beta=0.70
     Davidson diagonalization with overlap
     ethr =  3.58E-04,  avg # of iterations =  1.0

     total cpu time spent up to now is       20.9 secs

     total energy              =   -2825.77682850 Ry
     Harris-Foulkes estimate   =   -2826.11108290 Ry
     estimated scf accuracy    <       0.61585284 Ry

     iteration #  7     ecut=    50.00 Ry     beta=0.70
     Davidson diagonalization with overlap
     ethr =  1.33E-04,  avg # of iterations =  4.0

     total cpu time spent up to now is       23.8 secs

     total energy              =   -2826.17302806 Ry
     Harris-Foulkes estimate   =   -2826.27220588 Ry
     estimated scf accuracy    <       0.55848762 Ry

     iteration #  8     ecut=    50.00 Ry     beta=0.70
     Davidson diagonalization with overlap
     ethr =  1.20E-04,  avg # of iterations =  1.0

     negative rho (up, down):  1.344E-05 0.000E+00

     total cpu time spent up to now is       26.2 secs

     total energy              =   -2825.99863586 Ry
     Harris-Foulkes estimate   =   -2826.17982061 Ry
     estimated scf accuracy    <       0.33668936 Ry

     iteration #  9     ecut=    50.00 Ry     beta=0.70
     Davidson diagonalization with overlap
     ethr =  7.26E-05,  avg # of iterations =  9.0

     total cpu time spent up to now is       30.0 secs

     total energy              =   -2826.13395398 Ry
     Harris-Foulkes estimate   =   -2826.14931659 Ry
     estimated scf accuracy    <       0.09570022 Ry

     iteration # 10     ecut=    50.00 Ry     beta=0.70
     Davidson diagonalization with overlap
     ethr =  2.06E-05,  avg # of iterations =  2.0

     negative rho (up, down):  3.169E-03 0.000E+00

     total cpu time spent up to now is       32.5 secs

     total energy              =   -2826.12574185 Ry
     Harris-Foulkes estimate   =   -2826.13578859 Ry
     estimated scf accuracy    <       0.06227066 Ry

     iteration # 11     ecut=    50.00 Ry     beta=0.70
     Davidson diagonalization with overlap
     ethr =  1.34E-05,  avg # of iterations = 11.0

     negative rho (up, down):  2.762E-03 0.000E+00

     total cpu time spent up to now is       36.0 secs

     total energy              =   -2826.13114951 Ry
     Harris-Foulkes estimate   =   -2826.13325339 Ry
     estimated scf accuracy    <       0.02984751 Ry

     iteration # 12     ecut=    50.00 Ry     beta=0.70
     Davidson diagonalization with overlap
     ethr =  6.43E-06,  avg # of iterations = 10.0

     negative rho (up, down):  2.119E-03 0.000E+00

     total cpu time spent up to now is       39.2 secs

     total energy              =   -2826.12538290 Ry
     Harris-Foulkes estimate   =   -2826.13151133 Ry
     estimated scf accuracy    <       0.02490235 Ry

     iteration # 13     ecut=    50.00 Ry     beta=0.70
     Davidson diagonalization with overlap
     ethr =  5.37E-06,  avg # of iterations =  6.0

     negative rho (up, down):  7.686E-04 0.000E+00

     total cpu time spent up to now is       42.0 secs

     total energy              =   -2826.12550022 Ry
     Harris-Foulkes estimate   =   -2826.12786059 Ry
     estimated scf accuracy    <       0.01398805 Ry

     iteration # 14     ecut=    50.00 Ry     beta=0.70
     Davidson diagonalization with overlap
     WARNING:     1 eigenvalues not converged
     c_bands:  1 eigenvalues not converged
     ethr =  3.01E-06,  avg # of iterations = 20.0

     negative rho (up, down):  2.441E-04 0.000E+00

     total cpu time spent up to now is       46.7 secs

     total energy              =   -2826.12376948 Ry
     Harris-Foulkes estimate   =   -2826.12642941 Ry
     estimated scf accuracy    <       0.00719131 Ry

     iteration # 15     ecut=    50.00 Ry     beta=0.70
     Davidson diagonalization with overlap
     ethr =  1.55E-06,  avg # of iterations =  7.0

     negative rho (up, down):  1.874E-04 0.000E+00

     total cpu time spent up to now is       50.0 secs

     total energy              =   -2826.12546762 Ry
     Harris-Foulkes estimate   =   -2826.12552033 Ry
     estimated scf accuracy    <       0.00018090 Ry

     iteration # 16     ecut=    50.00 Ry     beta=0.70
     Davidson diagonalization with overlap
     ethr =  3.90E-08,  avg # of iterations =  4.0

     negative rho (up, down):  1.062E-04 0.000E+00

     total cpu time spent up to now is       53.3 secs

     total energy              =   -2826.12551591 Ry
     Harris-Foulkes estimate   =   -2826.12555322 Ry
     estimated scf accuracy    <       0.00010249 Ry

     iteration # 17     ecut=    50.00 Ry     beta=0.70
     Davidson diagonalization with overlap
     ethr =  2.21E-08,  avg # of iterations =  3.0

     negative rho (up, down):  6.497E-05 0.000E+00

     total cpu time spent up to now is       55.8 secs

     total energy              =   -2826.12551643 Ry
     Harris-Foulkes estimate   =   -2826.12552490 Ry
     estimated scf accuracy    <       0.00002021 Ry

     iteration # 18     ecut=    50.00 Ry     beta=0.70
     Davidson diagonalization with overlap
     ethr =  4.36E-09,  avg # of iterations =  4.0

     negative rho (up, down):  4.591E-05 0.000E+00

     total cpu time spent up to now is       59.4 secs

     total energy              =   -2826.12552045 Ry
     Harris-Foulkes estimate   =   -2826.12554100 Ry
     estimated scf accuracy    <       0.00004010 Ry

     iteration # 19     ecut=    50.00 Ry     beta=0.70
     Davidson diagonalization with overlap
     ethr =  4.36E-09,  avg # of iterations =  4.0

     negative rho (up, down):  4.335E-05 0.000E+00

     total cpu time spent up to now is       62.7 secs

     total energy              =   -2826.12553008 Ry
     Harris-Foulkes estimate   =   -2826.12553244 Ry
     estimated scf accuracy    <       0.00000719 Ry

     iteration # 20     ecut=    50.00 Ry     beta=0.70
     Davidson diagonalization with overlap
     ethr =  1.55E-09,  avg # of iterations =  4.0

     negative rho (up, down):  4.933E-05 0.000E+00

     total cpu time spent up to now is       65.6 secs

     total energy              =   -2826.12553021 Ry
     Harris-Foulkes estimate   =   -2826.12553075 Ry
     estimated scf accuracy    <       0.00000140 Ry

     iteration # 21     ecut=    50.00 Ry     beta=0.70
     Davidson diagonalization with overlap
     ethr =  3.03E-10,  avg # of iterations =  4.0

     negative rho (up, down):  5.003E-05 0.000E+00

     total cpu time spent up to now is       68.1 secs

     End of self-consistent calculation

          k = 0.0000 0.0000 0.0000 ( 29362 PWs)   bands (ev):

   -36.8106 -36.8105 -36.8029 -36.8029 -21.4938 -21.4936 -21.4930 -21.4928
   -20.1018 -20.1016 -20.0866 -20.0865 -19.4726 -19.4726 -19.4722 -19.4722
   -18.7762 -18.7759 -18.7734 -18.7733 -18.4081 -18.4080 -18.1986 -18.1985
   -17.9429 -17.9427 -17.8937 -17.8937 -17.8741 -17.8737 -17.8360 -17.8354
   -17.4133 -17.4133 -17.3011 -17.3010 -16.8548 -16.8547 -16.8208 -16.8208
   -15.3507 -15.3426 -15.3172 -15.3145 -15.1800 -15.1724 -15.1118 -15.1036
   -13.1473 -13.1404 -13.1169 -13.1040 -12.5827 -12.5767 -12.5749 -12.5692
   -12.5137 -12.5101 -12.4357 -12.4347 -12.3543 -12.3541 -12.3414 -12.3412
   -10.6656 -10.6619 -10.6418 -10.6332  -9.4184  -9.4182  -9.4123  -9.3781
    -9.2668  -9.2648  -9.2176  -9.2174  -9.0643  -9.0539  -9.0487  -9.0433
    -8.3274  -8.3078  -8.3029  -8.2765  -7.8702  -7.8412  -7.7442  -7.7165
    -7.5352  -7.5236  -7.5114  -7.4735  -6.8624  -6.7439  -6.7264  -6.6695
    -6.1424  -5.9723  -5.9537  -5.8905  -5.4754  -5.4379  -5.4330  -5.4307
    -5.3154  -5.2975  -5.2895  -5.2727  -5.2613  -5.2223  -5.2167  -5.1839
    -5.0654  -5.0627  -5.0589  -5.0487  -5.0396  -5.0315  -4.9695  -4.9624
    -4.9446  -4.9177  -4.8208  -4.8151  -4.5375  -4.5204  -4.4803  -4.4386
    -4.4381  -4.4267  -4.3873  -4.3452  -4.3230  -4.3117  -4.2590  -4.2392
    -4.2277  -4.1826  -4.1744  -4.1717  -4.0181  -3.9693  -3.9445  -3.9205
    -3.7813  -3.7577  -3.7527  -3.7118  -3.4917  -3.4856  -3.4665  -3.4451
    -3.3742  -3.3318  -3.3127  -3.2632  -3.1798  -3.1450  -3.0977  -3.0653
    -2.9505  -2.9285  -2.8440  -2.8055  -2.5682  -2.5351  -2.4879  -2.4153
    -2.3901  -2.3851  -2.3164  -2.3053  -2.1378  -2.1286  -2.1262  -2.1251
    -1.8992  -1.8362  -1.8263  -1.7923  -1.5350  -1.5300  -1.4523  -1.4462
    -1.1228  -1.1120  -1.0800  -1.0729  -0.7968  -0.7523  -0.7320  -0.7014
    -0.6022  -0.5783  -0.5736  -0.5388  -0.5088  -0.5082  -0.4817  -0.4763
    -0.4470  -0.4431  -0.4235  -0.3416  -0.3130  -0.2590  -0.2341  -0.1994
    -0.0413  -0.0142   0.0168   0.0194   0.0717   0.0832   0.1009   0.1295
     0.3142   0.3246   0.3618   0.3735   0.4296   0.4680   0.5350   0.5515
     0.6544   0.6616   0.7150   0.7354   1.0915   1.0936   1.0989   1.1032
     3.8473   3.9363   3.9836   4.0154   4.6059   4.6471   4.6587   4.7388
     4.7460   4.7720   4.8493   4.8663   5.0740   5.1226   5.1709   5.2352
     6.0163   6.0510   6.2015   6.3115   6.3325   6.4145   6.6736   6.8313
     6.8630   6.9344   6.9477   7.1810   7.3257   7.3903   7.4405   7.4605
     7.4671   7.4945   7.6141   7.6652   7.7208   7.8042   7.8750   7.9574
     7.9723   7.9936   8.0317   8.0894   8.0944   8.1432

     the Fermi energy is     2.5724 ev

!    total energy              =   -2826.12553037 Ry
     Harris-Foulkes estimate   =   -2826.12553076 Ry
     estimated scf accuracy    <       0.00000044 Ry

     total all-electron energy =    -16512.230391 Ry

     The total energy is the sum of the following terms:

     one-electron contribution =   -2309.77524782 Ry
     hartree contribution      =    1334.97122772 Ry
     xc contribution           =    -527.40950205 Ry
     ewald contribution        =    -360.67947259 Ry
     one-center paw contrib.   =    -963.23253563 Ry
     smearing contrib. (-TS)   =      -0.00000000 Ry

     convergence has been achieved in  21 iterations

     negative rho (up, down):  5.003E-05 0.000E+00

     Forces acting on atoms (Ry/au):

     atom    1 type  2   force =    -0.02674781    0.01768687    0.02065640
     atom    2 type  2   force =     0.02667352    0.01769575   -0.02066017
     atom    3 type  2   force =     0.02674781   -0.01768687   -0.02065640
     atom    4 type  2   force =    -0.02667352   -0.01769575    0.02066017
     atom    5 type  2   force =     0.02529244   -0.02842704   -0.00259525
     atom    6 type  2   force =    -0.02527169   -0.02842610    0.00258318
     atom    7 type  2   force =    -0.02529244    0.02842704    0.00259525
     atom    8 type  2   force =     0.02527169    0.02842610   -0.00258318
     atom    9 type  2   force =    -0.04401360   -0.22701758    0.13104610
     atom   10 type  2   force =     0.04403057   -0.22699713   -0.13105040
     atom   11 type  2   force =     0.04401360    0.22701758   -0.13104610
     atom   12 type  2   force =    -0.04403057    0.22699713    0.13105040
     atom   13 type  1   force =     0.02849426    0.24157761   -0.13824213
     atom   14 type  1   force =    -0.02849389    0.24157604    0.13824150
     atom   15 type  1   force =    -0.02849426   -0.24157761    0.13824213
     atom   16 type  1   force =     0.02849389   -0.24157604   -0.13824150
     atom   17 type  2   force =     0.20219964   -0.18310676   -0.00489643
     atom   18 type  2   force =    -0.20217391   -0.18311598    0.00489610
     atom   19 type  2   force =    -0.20219964    0.18310676    0.00489643
     atom   20 type  2   force =     0.20217391    0.18311598   -0.00489610
     atom   21 type  1   force =    -0.21330697    0.18924395    0.00167693
     atom   22 type  1   force =     0.21330044    0.18923770   -0.00167689
     atom   23 type  1   force =     0.21330697   -0.18924395   -0.00167693
     atom   24 type  1   force =    -0.21330044   -0.18923770    0.00167689
     atom   25 type  2   force =     0.00383386   -0.00302069   -0.00448501
     atom   26 type  2   force =    -0.00386220   -0.00301750    0.00449058
     atom   27 type  2   force =    -0.00383386    0.00302069    0.00448501
     atom   28 type  2   force =     0.00386220    0.00301750   -0.00449058
     atom   29 type  2   force =     0.02985300    0.23027039   -0.13495806
     atom   30 type  2   force =    -0.02985397    0.23026685    0.13494911
     atom   31 type  2   force =    -0.02985300   -0.23027039    0.13495806
     atom   32 type  2   force =     0.02985397   -0.23026685   -0.13494911
     atom   33 type  1   force =    -0.02500540   -0.23871562    0.14532811
     atom   34 type  1   force =     0.02500440   -0.23870857   -0.14532455
     atom   35 type  1   force =     0.02500540    0.23871562   -0.14532811
     atom   36 type  1   force =    -0.02500440    0.23870857    0.14532455
     atom   37 type  2   force =    -0.21097327    0.20887723    0.00454302
     atom   38 type  2   force =     0.21098851    0.20887534   -0.00454292
     atom   39 type  2   force =     0.21097327   -0.20887723   -0.00454302
     atom   40 type  2   force =    -0.21098851   -0.20887534    0.00454292
     atom   41 type  1   force =     0.21216295   -0.19169006   -0.00865963
     atom   42 type  1   force =    -0.21215515   -0.19168508    0.00866088
     atom   43 type  1   force =    -0.21216295    0.19169006    0.00865963
     atom   44 type  1   force =     0.21215515    0.19168508   -0.00866088
     atom   45 type  2   force =    -0.00346516   -0.01126535    0.00180086
     atom   46 type  2   force =     0.00350382   -0.01125596   -0.00180827
     atom   47 type  2   force =     0.00346516    0.01126535   -0.00180086
     atom   48 type  2   force =    -0.00350382    0.01125596    0.00180827
     atom   49 type  2   force =     0.09240627   -0.18619593    0.18227905
     atom   50 type  2   force =    -0.09235359   -0.18619160   -0.18226173
     atom   51 type  2   force =    -0.09240627    0.18619593   -0.18227905
     atom   52 type  2   force =     0.09235359    0.18619160    0.18226173
     atom   53 type  1   force =    -0.09964561    0.19364446   -0.18076303
     atom   54 type  1   force =     0.09964499    0.19365016    0.18076792
     atom   55 type  1   force =     0.09964561   -0.19364446    0.18076303
     atom   56 type  1   force =    -0.09964499   -0.19365016   -0.18076792
     atom   57 type  2   force =     0.07396235   -0.23436663   -0.10995232
     atom   58 type  2   force =    -0.07395353   -0.23437378    0.10993412
     atom   59 type  2   force =    -0.07396235    0.23436663    0.10995232
     atom   60 type  2   force =     0.07395353    0.23437378   -0.10993412
     atom   61 type  1   force =    -0.09415153    0.24842293    0.09857354
     atom   62 type  1   force =     0.09414963    0.24841959   -0.09857222
     atom   63 type  1   force =     0.09415153   -0.24842293   -0.09857354
     atom   64 type  1   force =    -0.09414963   -0.24841959    0.09857222
     atom   65 type  2   force =     0.01005018   -0.01189419    0.01644186
     atom   66 type  2   force =    -0.01005129   -0.01188747   -0.01646465
     atom   67 type  2   force =    -0.01005018    0.01189419   -0.01644186
     atom   68 type  2   force =     0.01005129    0.01188747    0.01646465
     atom   69 type  2   force =    -0.10325329    0.19922843   -0.18094781
     atom   70 type  2   force =     0.10323423    0.19922954    0.18092020
     atom   71 type  2   force =     0.10325329   -0.19922843    0.18094781
     atom   72 type  2   force =    -0.10323423   -0.19922954   -0.18092020
     atom   73 type  1   force =     0.10287148   -0.19384946    0.18340963
     atom   74 type  1   force =    -0.10286940   -0.19384801   -0.18340780
     atom   75 type  1   force =    -0.10287148    0.19384946   -0.18340963
     atom   76 type  1   force =     0.10286940    0.19384801    0.18340780
     atom   77 type  2   force =    -0.08351636    0.23806189    0.09204686
     atom   78 type  2   force =     0.08359462    0.23805670   -0.09202298
     atom   79 type  2   force =     0.08351636   -0.23806189   -0.09204686
     atom   80 type  2   force =    -0.08359462   -0.23805670    0.09202298
     atom   81 type  1   force =     0.10032391   -0.24273376   -0.09765346
     atom   82 type  1   force =    -0.10032319   -0.24272929    0.09765129
     atom   83 type  1   force =    -0.10032391    0.24273376    0.09765346
     atom   84 type  1   force =     0.10032319    0.24272929   -0.09765129
     atom   85 type  2   force =    -0.00147805    0.01007290   -0.02698461
     atom   86 type  2   force =     0.00127935    0.01008352    0.02695994
     atom   87 type  2   force =     0.00147805   -0.01007290    0.02698461
     atom   88 type  2   force =    -0.00127935   -0.01008352   -0.02695994
     atom   89 type  3   force =     0.00100399    0.01388624   -0.00330437
     atom   90 type  3   force =    -0.00100418    0.01388937    0.00330451
     atom   91 type  3   force =    -0.00100399   -0.01388624    0.00330437
     atom   92 type  3   force =     0.00100418   -0.01388937   -0.00330451
     atom   93 type  3   force =     0.02532546   -0.03089550   -0.01385307
     atom   94 type  3   force =    -0.02532569   -0.03089553    0.01385210
     atom   95 type  3   force =    -0.02532546    0.03089550    0.01385307
     atom   96 type  3   force =     0.02532569    0.03089553   -0.01385210
     atom   97 type  3   force =    -0.01798557    0.01206602   -0.01077844
     atom   98 type  3   force =     0.01798689    0.01206633    0.01077937
     atom   99 type  3   force =     0.01798557   -0.01206602    0.01077844
     atom  100 type  3   force =    -0.01798689   -0.01206633   -0.01077937
     atom  101 type  3   force =     0.00623497   -0.02014761    0.00396157
     atom  102 type  3   force =    -0.00623505   -0.02014727   -0.00396186
     atom  103 type  3   force =    -0.00623497    0.02014761   -0.00396157
     atom  104 type  3   force =     0.00623505    0.02014727    0.00396186
     atom  105 type  3   force =     0.00130067    0.01415802   -0.00133715
     atom  106 type  3   force =    -0.00129982    0.01415530    0.00133836
     atom  107 type  3   force =    -0.00130067   -0.01415802    0.00133715
     atom  108 type  3   force =     0.00129982   -0.01415530   -0.00133836
     atom  109 type  3   force =     0.00237780   -0.02035002    0.02214937
     atom  110 type  3   force =    -0.00237810   -0.02035283   -0.02215085
     atom  111 type  3   force =    -0.00237780    0.02035002   -0.02214937
     atom  112 type  3   force =     0.00237810    0.02035283    0.02215085
     atom  113 type  4   force =     0.01328625    0.00661710    0.01023958
     atom  114 type  4   force =    -0.01328617    0.00661755   -0.01023629
     atom  115 type  4   force =    -0.01328625   -0.00661710   -0.01023958
     atom  116 type  4   force =     0.01328617   -0.00661755    0.01023629
     atom  117 type  5   force =    -0.00788223    0.00342350    0.00361583
     atom  118 type  5   force =     0.00788387    0.00342268   -0.00361751
     atom  119 type  5   force =     0.00788223   -0.00342350   -0.00361583
     atom  120 type  5   force =    -0.00788387   -0.00342268    0.00361751

     Total force =     2.244428     Total SCF correction =     0.001753


     entering subroutine stress ...


     negative rho (up, down):  5.003E-05 0.000E+00
          total   stress  (Ry/bohr**3)                   (kbar)     P=   89.16
   0.00037658   0.00000000   0.00004230         55.40      0.00      6.22
   0.00000000   0.00111591  -0.00000000          0.00    164.16     -0.00
   0.00004230  -0.00000000   0.00032574          6.22     -0.00     47.92


     BFGS Geometry Optimization

     number of scf cycles    =   1
     number of bfgs steps    =   0

     enthalpy new            =   -2826.1255303680 Ry

     new trust radius        =       0.5000000000 bohr
     new conv_thr            =       0.0000010000 Ry

     new unit-cell volume =  10237.15913 a.u.^3 (  1516.99045 Ang^3 )

CELL_PARAMETERS (angstrom)
  11.718178996   0.000000647   0.011106281
   0.000000310   5.707074567  -0.000000026
  -4.350376959  -0.000000348  22.679330149

ATOMIC_POSITIONS (angstrom)
C        4.626717488   1.484524546   5.957400446
C       -0.942846951   4.338065881   5.387815896
C        2.741094944   4.222550320  16.733035968
C        8.310649299   1.369008985  17.302620508
C        3.395935468   1.190822949   6.786588938
C        0.287980882   4.044360529   4.558623452
C        3.971876965   4.516251917  15.903847475
C        7.079821465   1.662714337  18.131812952
C        2.330526565   2.051081328   6.872659508
C        1.353388056   4.904628596   4.472556618
C        5.037285867   3.655993538  15.817776906
C        6.014414291   0.802446270  18.217879786
H        2.475691401   3.135792717   6.296176579
H        1.208215023   0.282254602   5.049041322
H        4.892121031   2.571282149  16.394259834
H        6.159597410   5.424820264  17.641395091
C        1.249721133   1.783267644   7.482100592
C        2.434187602   4.636800489   3.863117440
C        6.118081214   3.923807222  15.208335811
C        4.933614736   1.070274377  18.827308891
H        0.331136180   2.611330065   7.495730122
H        3.352767168   5.464864467   3.849488074
H        7.036676243   3.095744801  15.194696218
H        4.015035179   0.242210399  18.840948329
C        1.029044608   0.624013753   8.139905926
C        2.654848007   3.477552716   3.205314947
C        6.338757739   5.083061113  14.550530478
C        4.712964426   2.229522150  19.485121467
C        2.090084363   5.484986300   8.109795566
C        1.593821664   2.631447281   3.235418304
C        5.277728060   0.222088566  14.580630773
C        5.773980683   3.075627585  19.455018100
H        1.970515374   4.424626948   8.736973568
H        1.713390531   1.571093138   2.608246337
H        5.397286974   1.282447918  13.953462835
H        5.654421902   4.135981728  20.082190076
C        3.155270732   5.759280154   7.474835477
C        0.528643142   2.905741814   3.870372686
C        4.212541691  -0.052205288  15.215590862
C        6.839159196   2.801333052  18.820053644
H        4.073716671   4.915094434   7.453468324
H       -0.389816554   2.061559366   3.891750462
H        3.294085676   0.791980432  15.236968080
H        7.757618901   3.645515500  18.798685941
C       -0.301203249   0.633093365  10.666340069
C        3.985128179   3.486635538   0.678874577
C        7.669015682   5.073981501  12.024096344
C        3.382674168   2.220439328  22.011561826
C       -0.688305280   1.814856876  11.204334011
C        4.372237116   4.668396618   0.140892549
C        8.056117703   3.892217990  11.486092329
C        2.995565231   1.038678248  22.549543855
H       -1.121406103   2.664287420  10.414271641
H        4.805302224   5.517827872   0.930948887
H        8.489208441   3.042787446  12.276154689
H        2.562500123   0.189246994  21.759487517
C       -0.623921217   2.074871047  12.440474454
C       -0.042545050   4.928404815  21.584065115
C        7.991723565   3.632203819  10.249961950
C        7.410347398   0.778670051   1.106371289
H       -0.983184004   3.181388292  12.867247897
H        0.316712372   0.327849399  21.157291016
H        8.350986342   2.525686574   9.823178433
H        7.051089975   5.379225466   1.533145388
C       -0.176038937   1.200642339  13.390988247
C       -0.490432226   4.054182862  20.633539045
C        7.543851360   4.506432527   9.299438093
C        7.858234564   1.652892004   2.056887285
C        0.247134850   5.750560224  12.826737173
C       -0.913614486   2.897023380  21.197797841
C        7.120667498  -0.043485358   9.863699230
C        8.281416834   2.810051486   1.492638563
H        0.707806058   4.903762604  13.612916279
H       -1.374275584   2.050225887  20.411622868
H        6.659996280   0.803312262   9.077510051
H        8.742088007   3.656848978   2.278803472
C        0.201240842   5.480246474  11.585888313
C       -0.867673532   2.626706537  22.438671561
C        7.166561506   0.226828391  11.104548091
C        8.235485965   3.080368329   0.251764853
H        0.614801992   4.395262624  11.156884404
H        3.069094651   1.541727718   0.188332731
H        6.753000355   1.311812242  11.533551999
H        4.298707696   4.165347148  22.502103672
C       -0.187376359   1.502473778  14.860361334
C       -0.479190084   4.356016233  19.164175030
C        7.555188792   4.204601088   7.830075079
C        7.846992431   1.351058633   3.526261374
O        4.907672882   2.720528096   5.724048771
O       10.494412537   5.574067224   5.632275757
O        2.460139540   2.986546770  16.966377569
O       -3.126610189   0.133007642  17.058160647
O        5.290299010   0.445981772   5.526751540
O       10.111786142   3.299519308   5.829572477
O        2.077503338   5.261093094  17.163684864
O       -2.743973710   2.407555558  16.860863936
O       -1.560431881   1.123362246   8.414334355
O        5.244338853   3.976900084   2.930884288
O        8.928244313   4.583712620  14.276102059
O        2.123463494   1.730174782  19.759552116
O       -0.681188684   4.439355812   8.860058732
O        4.365095032   1.585819004   2.485159320
O        8.049001116   1.267719054  13.830377681
O        3.002707315   4.121255862  20.205277084
O       -0.147275417   2.728073367  15.257236614
O       -0.519194629   5.581609280  18.767302226
O        7.515077764   2.979001499   7.433199790
O        7.887007052   0.125465586   3.923124114
O       -0.184075826   0.475122366  15.677053539
O       -0.482395012   3.328658242  18.347494098
O        7.551888258   5.231952500   7.013382875
O        7.850197360   2.378416624   4.342942306
S       -0.498575521   0.210984563   8.944913476
S        4.182481802   3.064522356   2.400306310
S        7.866377868   5.496090303  13.745522928
S        3.185330630   2.642552510  20.290130103
Ca       6.500846473   4.243800903   5.024798856
Ca       8.901229596   1.390263344   6.331524797
Ca       0.866955865   1.463273963  17.665627474
Ca      -1.533427249   4.316811522  16.358911607



     Writing output data file pwscf.save
     NEW-OLD atomic charge density approx. for the potential

     Check: negative/imaginary core charge=   -0.000008    0.000000

     negative rho (up, down):  2.769E-05 0.000E+00
     extrapolated charge  482.50980, renormalised to  464.00000

     total cpu time spent up to now is       80.1 secs

     per-process dynamical memory:   138.1 Mb

     Self-consistent Calculation

     iteration #  1     ecut=    50.00 Ry     beta=0.70
     Davidson diagonalization with overlap
     WARNING:     1 eigenvalues not converged
     c_bands:  1 eigenvalues not converged
     ethr =  1.00E-06,  avg # of iterations = 20.0

     negative rho (up, down):  2.481E-04 0.000E+00

     total cpu time spent up to now is       88.1 secs

     total energy              =   -2795.07418716 Ry
     Harris-Foulkes estimate   =   -2748.09422799 Ry
     estimated scf accuracy    <      86.65062630 Ry

     iteration #  2     ecut=    50.00 Ry     beta=0.70
     Davidson diagonalization with overlap
     ethr =  1.00E-02,  avg # of iterations =  5.0

     total cpu time spent up to now is       90.8 secs

     total energy              =   -2825.87315380 Ry
     Harris-Foulkes estimate   =   -2830.15476316 Ry
     estimated scf accuracy    <      12.99429637 Ry

     iteration #  3     ecut=    50.00 Ry     beta=0.70
     Davidson diagonalization with overlap
     ethr =  2.80E-03,  avg # of iterations =  2.0

     total cpu time spent up to now is       92.8 secs

     total energy              =   -2824.91857513 Ry
     Harris-Foulkes estimate   =   -2826.61833259 Ry
     estimated scf accuracy    <       4.80557901 Ry

     iteration #  4     ecut=    50.00 Ry     beta=0.70
     Davidson diagonalization with overlap
     ethr =  1.04E-03,  avg # of iterations =  9.0

     total cpu time spent up to now is       96.2 secs

     total energy              =   -2826.12695570 Ry
     Harris-Foulkes estimate   =   -2826.23328294 Ry
     estimated scf accuracy    <       1.20986113 Ry

     iteration #  5     ecut=    50.00 Ry     beta=0.70
     Davidson diagonalization with overlap
     ethr =  2.61E-04,  avg # of iterations =  2.0

     total cpu time spent up to now is       98.2 secs

     total energy              =   -2825.99844175 Ry
     Harris-Foulkes estimate   =   -2826.19517370 Ry
     estimated scf accuracy    <       1.12154572 Ry

     iteration #  6     ecut=    50.00 Ry     beta=0.70
     Davidson diagonalization with overlap
     ethr =  2.42E-04,  avg # of iterations =  3.0

     total cpu time spent up to now is      100.4 secs

     total energy              =   -2825.94908854 Ry
     Harris-Foulkes estimate   =   -2826.15428260 Ry
     estimated scf accuracy    <       1.24010186 Ry

     iteration #  7     ecut=    50.00 Ry     beta=0.70
     Davidson diagonalization with overlap
     ethr =  2.42E-04,  avg # of iterations =  1.0

     total cpu time spent up to now is      102.3 secs

     total energy              =   -2825.77882932 Ry
     Harris-Foulkes estimate   =   -2825.96535932 Ry
     estimated scf accuracy    <       0.76641147 Ry

     iteration #  8     ecut=    50.00 Ry     beta=0.70
     Davidson diagonalization with overlap
     ethr =  1.65E-04,  avg # of iterations = 12.0

     total cpu time spent up to now is      105.4 secs

     total energy              =   -2825.83513857 Ry
     Harris-Foulkes estimate   =   -2825.84579615 Ry
     estimated scf accuracy    <       0.23738679 Ry

     iteration #  9     ecut=    50.00 Ry     beta=0.70
     Davidson diagonalization with overlap
     ethr =  5.12E-05,  avg # of iterations = 16.0

     total cpu time spent up to now is      108.9 secs

     total energy              =   -2825.82599535 Ry
     Harris-Foulkes estimate   =   -2825.84049306 Ry
     estimated scf accuracy    <       0.20190537 Ry

     iteration # 10     ecut=    50.00 Ry     beta=0.70
     Davidson diagonalization with overlap
     ethr =  4.35E-05,  avg # of iterations = 20.0

     total cpu time spent up to now is      112.9 secs

     total energy              =   -2825.77881039 Ry
     Harris-Foulkes estimate   =   -2825.82966471 Ry
     estimated scf accuracy    <       0.16486912 Ry

     iteration # 11     ecut=    50.00 Ry     beta=0.70
     Davidson diagonalization with overlap
     ethr =  3.55E-05,  avg # of iterations = 11.0

     negative rho (up, down):  6.559E-06 0.000E+00

     total cpu time spent up to now is      117.0 secs

     total energy              =   -2825.78577267 Ry
     Harris-Foulkes estimate   =   -2825.80552204 Ry
     estimated scf accuracy    <       0.07942317 Ry

     iteration # 12     ecut=    50.00 Ry     beta=0.70
     Davidson diagonalization with overlap
     ethr =  1.71E-05,  avg # of iterations =  2.0

     negative rho (up, down):  8.037E-05 0.000E+00

     total cpu time spent up to now is      119.6 secs

     total energy              =   -2825.77187942 Ry
     Harris-Foulkes estimate   =   -2825.78820449 Ry
     estimated scf accuracy    <       0.03405207 Ry

     iteration # 13     ecut=    50.00 Ry     beta=0.70
     Davidson diagonalization with overlap
     ethr =  7.34E-06,  avg # of iterations = 15.0

     negative rho (up, down):  2.132E-06 0.000E+00

     total cpu time spent up to now is      124.5 secs

     total energy              =   -2825.78355345 Ry
     Harris-Foulkes estimate   =   -2825.78688596 Ry
     estimated scf accuracy    <       0.00716747 Ry

     iteration # 14     ecut=    50.00 Ry     beta=0.70
     Davidson diagonalization with overlap
     ethr =  1.54E-06,  avg # of iterations =  5.0

     negative rho (up, down):  1.286E-06 0.000E+00

     total cpu time spent up to now is      127.4 secs

     total energy              =   -2825.78512328 Ry
     Harris-Foulkes estimate   =   -2825.78515922 Ry
     estimated scf accuracy    <       0.00025126 Ry

     iteration # 15     ecut=    50.00 Ry     beta=0.70
     Davidson diagonalization with overlap
     ethr =  5.42E-08,  avg # of iterations =  5.0

     negative rho (up, down):  1.196E-05 0.000E+00

     total cpu time spent up to now is      130.8 secs

     total energy              =   -2825.78517083 Ry
     Harris-Foulkes estimate   =   -2825.78521646 Ry
     estimated scf accuracy    <       0.00025645 Ry

     iteration # 16     ecut=    50.00 Ry     beta=0.70
     Davidson diagonalization with overlap
     ethr =  5.42E-08,  avg # of iterations =  1.0

     negative rho (up, down):  3.226E-05 0.000E+00

     total cpu time spent up to now is      133.0 secs

     total energy              =   -2825.78513539 Ry
     Harris-Foulkes estimate   =   -2825.78517636 Ry
     estimated scf accuracy    <       0.00013308 Ry

     iteration # 17     ecut=    50.00 Ry     beta=0.70
     Davidson diagonalization with overlap
     ethr =  2.87E-08,  avg # of iterations =  3.0

     negative rho (up, down):  3.771E-05 0.000E+00

     total cpu time spent up to now is      135.8 secs

     total energy              =   -2825.78515703 Ry
     Harris-Foulkes estimate   =   -2825.78515866 Ry
     estimated scf accuracy    <       0.00000614 Ry

     iteration # 18     ecut=    50.00 Ry     beta=0.70
     Davidson diagonalization with overlap
     ethr =  1.32E-09,  avg # of iterations =  4.0

     negative rho (up, down):  4.974E-05 0.000E+00

     total cpu time spent up to now is      138.8 secs

     total energy              =   -2825.78515824 Ry
     Harris-Foulkes estimate   =   -2825.78515867 Ry
     estimated scf accuracy    <       0.00000176 Ry

     iteration # 19     ecut=    50.00 Ry     beta=0.70
     Davidson diagonalization with overlap
     ethr =  3.80E-10,  avg # of iterations =  4.0

     negative rho (up, down):  4.892E-05 0.000E+00

     total cpu time spent up to now is      142.0 secs

     total energy              =   -2825.78515788 Ry
     Harris-Foulkes estimate   =   -2825.78515931 Ry
     estimated scf accuracy    <       0.00000437 Ry

     iteration # 20     ecut=    50.00 Ry     beta=0.70
     Davidson diagonalization with overlap
     ethr =  3.80E-10,  avg # of iterations =  4.0

     negative rho (up, down):  4.603E-05 0.000E+00

     total cpu time spent up to now is      144.2 secs

     End of self-consistent calculation

          k = 0.0000 0.0000 0.0000 ( 29362 PWs)   bands (ev):

   -37.2883 -37.2883 -37.2824 -37.2824 -21.2918 -21.2916 -21.2908 -21.2906
   -19.8648 -19.8643 -19.8434 -19.8431 -19.2520 -19.2520 -19.2507 -19.2506
   -18.7643 -18.7637 -18.7595 -18.7593 -18.6777 -18.6776 -18.5312 -18.5311
   -18.3450 -18.3450 -18.2951 -18.2950 -18.2392 -18.2385 -18.2283 -18.2275
   -17.3833 -17.3831 -17.2796 -17.2794 -16.8380 -16.8380 -16.8307 -16.8307
   -16.4155 -16.4105 -16.3965 -16.3949 -16.2870 -16.2858 -16.2430 -16.2403
   -13.6097 -13.6092 -13.5830 -13.5778 -13.0350 -13.0237 -13.0136 -13.0115
   -12.7447 -12.7443 -12.6881 -12.6880 -12.6024 -12.6023 -12.5857 -12.5855
   -11.3300 -11.3244 -11.3098 -11.2961  -9.9742  -9.9742  -9.9578  -9.9412
    -8.7100  -8.6956  -8.6877  -8.6848  -8.5172  -8.5149  -8.4753  -8.4730
    -8.3311  -8.3145  -8.3109  -8.2986  -7.7339  -7.6821  -7.5855  -7.5285
    -7.3817  -7.3811  -7.3801  -7.3547  -7.1821  -7.1247  -7.1165  -7.0418
    -6.5133  -6.3959  -6.3571  -6.3280  -6.0277  -6.0262  -5.9960  -5.9792
    -5.7423  -5.7272  -5.7172  -5.7052  -5.5898  -5.5413  -5.5238  -5.5137
    -5.2269  -5.1893  -5.1531  -5.1464  -4.8716  -4.8640  -4.8581  -4.8515
    -4.6303  -4.6055  -4.5582  -4.5351  -4.3897  -4.3689  -4.2660  -4.2159
    -4.1828  -4.1393  -4.0866  -4.0762  -3.9254  -3.8905  -3.8207  -3.8114
    -3.7300  -3.6905  -3.6791  -3.6730  -3.6673  -3.6406  -3.6038  -3.5803
    -3.5120  -3.5074  -3.4719  -3.4652  -3.3541  -3.3318  -3.3147  -3.3122
    -3.2638  -3.2529  -3.2529  -3.2390  -3.2295  -3.1783  -3.1616  -3.1400
    -3.0797  -3.0419  -3.0132  -3.0043  -2.9795  -2.9615  -2.9110  -2.8657
    -2.1122  -2.0820  -2.0612  -2.0431  -1.7708  -1.7578  -1.7302  -1.7296
    -1.3515  -1.3487  -1.3068  -1.3025  -1.2727  -1.2707  -1.2178  -1.1822
    -1.0816  -1.0564  -1.0379  -1.0346  -1.0265  -1.0106  -0.9621  -0.9468
    -0.9030  -0.8909  -0.8399  -0.8387  -0.8088  -0.7609  -0.7524  -0.7446
    -0.6931  -0.6726  -0.6711  -0.6629  -0.6007  -0.5845  -0.5419  -0.5273
    -0.4606  -0.4543  -0.3310  -0.3173  -0.3157  -0.3034  -0.2832  -0.2563
     0.0797   0.0808   0.0813   0.0826   0.0880   0.1118   0.1955   0.2058
     0.2197   0.2217   0.2790   0.2976   0.7861   0.7947   0.7971   0.8063
     3.2998   3.4043   3.4170   3.4509   4.0489   4.1423   4.1588   4.1963
     5.1645   5.3104   5.3449   5.3498   5.3762   5.4751   5.5837   5.6238
     5.6630   5.7305   5.7379   5.8087   5.8285   5.8761   5.8860   5.9723
     6.1533   6.1718   6.1895   6.1896   6.3637   6.3661   6.4815   6.5061
     6.5931   6.6448   6.7062   6.7128   6.9933   7.0496   7.0540   7.1772
     7.2469   7.3203   7.3953   7.4460   7.5373   7.5551

     the Fermi energy is     2.0663 ev

!    total energy              =   -2825.78515787 Ry
     Harris-Foulkes estimate   =   -2825.78515829 Ry
     estimated scf accuracy    <       0.00000049 Ry

     total all-electron energy =    -16511.890018 Ry

     The total energy is the sum of the following terms:

     one-electron contribution =   -2319.08712644 Ry
     hartree contribution      =    1334.81672891 Ry
     xc contribution           =    -522.98272896 Ry
     ewald contribution        =    -355.34696104 Ry
     one-center paw contrib.   =    -963.18507034 Ry
     smearing contrib. (-TS)   =      -0.00000000 Ry

     convergence has been achieved in  20 iterations

     negative rho (up, down):  4.603E-05 0.000E+00

     Forces acting on atoms (Ry/au):

     atom    1 type  2   force =     0.05707714   -0.01265498   -0.03253823
     atom    2 type  2   force =    -0.05703445   -0.01265775    0.03253571
     atom    3 type  2   force =    -0.05707714    0.01265498    0.03253823
     atom    4 type  2   force =     0.05703445    0.01265775   -0.03253571
     atom    5 type  2   force =     0.02152986    0.03616794   -0.02818927
     atom    6 type  2   force =    -0.02156061    0.03617800    0.02818510
     atom    7 type  2   force =    -0.02152986   -0.03616794    0.02818927
     atom    8 type  2   force =     0.02156061   -0.03617800   -0.02818510
     atom    9 type  2   force =     0.21160669    0.23412347   -0.21320492
     atom   10 type  2   force =    -0.21165866    0.23412500    0.21319763
     atom   11 type  2   force =    -0.21160669   -0.23412347    0.21320492
     atom   12 type  2   force =     0.21165866   -0.23412500   -0.21319763
     atom   13 type  1   force =    -0.02051469   -0.10477525    0.05206563
     atom   14 type  1   force =     0.02051741   -0.10477167   -0.05206580
     atom   15 type  1   force =     0.02051469    0.10477525   -0.05206563
     atom   16 type  1   force =    -0.02051741    0.10477167    0.05206580
     atom   17 type  2   force =    -0.35505738    0.12243072    0.09548525
     atom   18 type  2   force =     0.35507387    0.12243584   -0.09547166
     atom   19 type  2   force =     0.35505738   -0.12243072   -0.09548525
     atom   20 type  2   force =    -0.35507387   -0.12243584    0.09547166
     atom   21 type  1   force =     0.08346928   -0.07380052   -0.00335870
     atom   22 type  1   force =    -0.08346329   -0.07380071    0.00335753
     atom   23 type  1   force =    -0.08346928    0.07380052    0.00335870
     atom   24 type  1   force =     0.08346329    0.07380071   -0.00335753
     atom   25 type  2   force =    -0.03786105   -0.01803263    0.01943196
     atom   26 type  2   force =     0.03791300   -0.01803754   -0.01943256
     atom   27 type  2   force =     0.03786105    0.01803263   -0.01943196
     atom   28 type  2   force =    -0.03791300    0.01803754    0.01943256
     atom   29 type  2   force =    -0.19018726   -0.24136357    0.22791009
     atom   30 type  2   force =     0.19023627   -0.24137107   -0.22791884
     atom   31 type  2   force =     0.19018726    0.24136357   -0.22791009
     atom   32 type  2   force =    -0.19023627    0.24137107    0.22791884
     atom   33 type  1   force =     0.01875692    0.10023318   -0.06239625
     atom   34 type  1   force =    -0.01875567    0.10023122    0.06239517
     atom   35 type  1   force =    -0.01875692   -0.10023318    0.06239625
     atom   36 type  1   force =     0.01875567   -0.10023122   -0.06239517
     atom   37 type  2   force =     0.35744606   -0.12907375   -0.09709026
     atom   38 type  2   force =    -0.35744557   -0.12906907    0.09710113
     atom   39 type  2   force =    -0.35744606    0.12907375    0.09709026
     atom   40 type  2   force =     0.35744557    0.12906907   -0.09710113
     atom   41 type  1   force =    -0.08881870    0.07890711    0.00123121
     atom   42 type  1   force =     0.08882086    0.07890610   -0.00122988
     atom   43 type  1   force =     0.08881870   -0.07890711   -0.00123121
     atom   44 type  1   force =    -0.08882086   -0.07890610    0.00122988
     atom   45 type  2   force =    -0.01056814   -0.01113986   -0.03967297
     atom   46 type  2   force =     0.01059420   -0.01113674    0.03968561
     atom   47 type  2   force =     0.01056814    0.01113986    0.03967297
     atom   48 type  2   force =    -0.01059420    0.01113674   -0.03968561
     atom   49 type  2   force =    -0.10090271    0.11751359   -0.36483238
     atom   50 type  2   force =     0.10080810    0.11753820    0.36473691
     atom   51 type  2   force =     0.10090271   -0.11751359    0.36483238
     atom   52 type  2   force =    -0.10080810   -0.11753820   -0.36473691
     atom   53 type  1   force =     0.03935228   -0.07603067    0.07396191
     atom   54 type  1   force =    -0.03934584   -0.07602768   -0.07396032
     atom   55 type  1   force =    -0.03935228    0.07603067   -0.07396191
     atom   56 type  1   force =     0.03934584    0.07602768    0.07396032
     atom   57 type  2   force =    -0.06345049    0.24981293    0.29920880
     atom   58 type  2   force =     0.06354505    0.24979667   -0.29915239
     atom   59 type  2   force =     0.06345049   -0.24981293   -0.29920880
     atom   60 type  2   force =    -0.06354505   -0.24979667    0.29915239
     atom   61 type  1   force =     0.02551098   -0.10874994   -0.04599545
     atom   62 type  1   force =    -0.02551030   -0.10874988    0.04599451
     atom   63 type  1   force =    -0.02551098    0.10874994    0.04599545
     atom   64 type  1   force =     0.02551030    0.10874988   -0.04599451
     atom   65 type  2   force =    -0.00510873    0.02611929    0.03089081
     atom   66 type  2   force =     0.00503762    0.02611182   -0.03090487
     atom   67 type  2   force =     0.00510873   -0.02611929   -0.03089081
     atom   68 type  2   force =    -0.00503762   -0.02611182    0.03090487
     atom   69 type  2   force =     0.10391801   -0.12506243    0.35418745
     atom   70 type  2   force =    -0.10380347   -0.12507065   -0.35409398
     atom   71 type  2   force =    -0.10391801    0.12506243   -0.35418745
     atom   72 type  2   force =     0.10380347    0.12507065    0.35409398
     atom   73 type  1   force =    -0.04521658    0.07828374   -0.07502364
     atom   74 type  1   force =     0.04521209    0.07828275    0.07502206
     atom   75 type  1   force =     0.04521658   -0.07828374    0.07502364
     atom   76 type  1   force =    -0.04521209   -0.07828275   -0.07502206
     atom   77 type  2   force =     0.08427073   -0.25118320   -0.28098723
     atom   78 type  2   force =    -0.08430134   -0.25117409    0.28087526
     atom   79 type  2   force =    -0.08427073    0.25118320    0.28098723
     atom   80 type  2   force =     0.08430134    0.25117409   -0.28087526
     atom   81 type  1   force =    -0.03566995    0.10473045    0.04854905
     atom   82 type  1   force =     0.03568022    0.10473275   -0.04854560
     atom   83 type  1   force =     0.03566995   -0.10473045   -0.04854905
     atom   84 type  1   force =    -0.03568022   -0.10473275    0.04854560
     atom   85 type  2   force =     0.00344522    0.00472784    0.05623583
     atom   86 type  2   force =    -0.00354536    0.00472935   -0.05622925
     atom   87 type  2   force =    -0.00344522   -0.00472784   -0.05623583
     atom   88 type  2   force =     0.00354536   -0.00472935    0.05622925
     atom   89 type  3   force =    -0.01982642   -0.07529067    0.01401103
     atom   90 type  3   force =     0.01981294   -0.07528012   -0.01400839
     atom   91 type  3   force =     0.01982642    0.07529067   -0.01401103
     atom   92 type  3   force =    -0.01981294    0.07528012    0.01400839
     atom   93 type  3   force =    -0.03977365    0.07555354    0.02683143
     atom   94 type  3   force =     0.03975427    0.07554254   -0.02682820
     atom   95 type  3   force =     0.03977365   -0.07555354   -0.02683143
     atom   96 type  3   force =    -0.03975427   -0.07554254    0.02682820
     atom   97 type  3   force =     0.03772679   -0.03520529    0.01821693
     atom   98 type  3   force =    -0.03772582   -0.03520316   -0.01821864
     atom   99 type  3   force =    -0.03772679    0.03520529   -0.01821693
     atom  100 type  3   force =     0.03772582    0.03520316    0.01821864
     atom  101 type  3   force =     0.01937986    0.08449263    0.01037643
     atom  102 type  3   force =    -0.01938374    0.08448601   -0.01037476
     atom  103 type  3   force =    -0.01937986   -0.08449263   -0.01037643
     atom  104 type  3   force =     0.01938374   -0.08448601    0.01037476
     atom  105 type  3   force =    -0.00302259   -0.07612621   -0.02859195
     atom  106 type  3   force =     0.00299226   -0.07610898    0.02858034
     atom  107 type  3   force =     0.00302259    0.07612621    0.02859195
     atom  108 type  3   force =    -0.00299226    0.07610898   -0.02858034
     atom  109 type  3   force =     0.00080394    0.06694403   -0.03874330
     atom  110 type  3   force =    -0.00083043    0.06694360    0.03873467
     atom  111 type  3   force =    -0.00080394   -0.06694403    0.03874330
     atom  112 type  3   force =     0.00083043   -0.06694360   -0.03873467
     atom  113 type  4   force =    -0.04199595   -0.04100992   -0.02093347
     atom  114 type  4   force =     0.04199274   -0.04100869    0.02093533
     atom  115 type  4   force =     0.04199595    0.04100992    0.02093347
     atom  116 type  4   force =    -0.04199274    0.04100869   -0.02093533
     atom  117 type  5   force =    -0.00681483    0.00459219    0.00540556
     atom  118 type  5   force =     0.00681563    0.00459308   -0.00540226
     atom  119 type  5   force =     0.00681483   -0.00459219   -0.00540556
     atom  120 type  5   force =    -0.00681563   -0.00459308    0.00540226

     Total force =     2.347320     Total SCF correction =     0.001541


     entering subroutine stress ...


     negative rho (up, down):  4.603E-05 0.000E+00
          total   stress  (Ry/bohr**3)                   (kbar)     P=   13.23
   0.00021389   0.00000001  -0.00010827         31.46      0.00    -15.93
   0.00000001  -0.00031794   0.00000001          0.00    -46.77      0.00
  -0.00010827   0.00000001   0.00037383        -15.93      0.00     54.99


     number of scf cycles    =   2
     number of bfgs steps    =   1

     enthalpy old            =   -2826.1255303680 Ry
     enthalpy new            =   -2825.7851578683 Ry

     CASE: enthalpy_new > enthalpy_old

     new trust radius        =       0.2326572954 bohr
     new conv_thr            =       0.0000010000 Ry

     new unit-cell volume =  10018.52544 a.u.^3 (  1484.59228 Ang^3 )

CELL_PARAMETERS (angstrom)
  11.665519594   0.000000303   0.005191475
   0.000000145   5.632316114  -0.000000012
  -4.342193068  -0.000000163  22.593262387

ATOMIC_POSITIONS (angstrom)
C        4.609781412   1.460519610   5.926624245
C       -0.948129660   4.276679534   5.372601822
C        2.713555298   4.171796643  16.671829609
C        8.271456330   1.355636720  17.225852028
C        3.370807477   1.182550805   6.759140547
C        0.290865596   3.998708998   4.540083670
C        3.952529233   4.449765449  15.839313308
C        7.032461075   1.633607255  18.058370180
C        2.327852655   2.082725557   6.811257115
C        1.333819616   4.898888219   4.487968841
C        4.995484056   3.549590696  15.787196739
C        5.989507055   0.733428035  18.110485009
H        2.454140622   3.032451442   6.305770644
H        1.207527826   0.216293002   4.993456142
H        4.869196088   2.599864811  16.292683211
H        6.115808884   5.416023252  17.604997713
C        1.188644122   1.807102409   7.453589376
C        2.473020061   4.623258422   3.845637466
C        6.134682548   3.825213844  15.144864474
C        4.850306605   1.009057832  18.752806349
H        0.380445926   2.528347501   7.465993184
H        3.281221093   5.344504227   3.833233739
H        6.942890780   3.103968752  15.132450636
H        4.042105577   0.287812026  18.765220111
C        1.019362090   0.616618183   8.108863104
C        2.642299935   3.432777016   3.190365068
C        6.303964580   5.015698070  14.489590746
C        4.681036775   2.199539237  19.408088787
C        2.069009564   5.353786687   8.111686260
C        1.592658702   2.537627831   3.187538648
C        5.254327142   0.278529566  14.486757559
C        5.730667969   3.094688423  19.410915202
H        1.963661885   4.428194577   8.664844468
H        1.698006328   1.612038122   2.634383250
H        5.359664785   1.204121676  13.933609382
H        5.625330382   4.020278131  19.964070604
C        3.191303865   5.630001376   7.443031886
C        0.470368051   2.813842828   3.856185019
C        4.132032840   0.002314877  15.155411933
C        6.852958615   2.818473425  18.742258797
H        3.997417013   4.900116783   7.424614313
H       -0.335756840   2.083959750   3.874612882
H        3.325909657   0.732199471  15.173839536
H        7.659083510   3.548356504  18.723840968
C       -0.304308387   0.627703897  10.624527242
C        3.965985451   3.443864211   0.674698023
C        7.627645097   5.004612357  11.973926612
C        3.357341219   2.188452043  21.923755826
C       -0.714480536   1.839074122  11.114477795
C        4.376160814   4.655233316   0.184753015
C        8.037817241   3.793242132  11.483966024
C        2.947165857   0.977082938  22.413700835
H       -1.096080376   2.579477007  10.420527757
H        4.757738684   5.395636527   0.878700252
H        8.419407042   3.052839246  12.177916059
H        2.565587987   0.236679727  21.719753598
C       -0.646254830   2.108097905  12.420477046
C       -0.034267796   4.924254341  21.472008176
C        7.969581500   3.524218349  10.177976804
C        7.357594466   0.708061913   1.126445674
H       -0.961145396   3.075685538  12.792486545
H        0.280620266   0.259526738  21.099993030
H        8.284472062   2.556630715   9.805957270
H        7.042706405   5.372789515   1.498460820
C       -0.184529979   1.187980480  13.334766811
C       -0.495994927   4.004140031  20.557707352
C        7.507866684   4.444335774   9.263677008
C        7.819321593   1.628176223   2.040736464
C        0.266025046   5.623882665  12.822968059
C       -0.946553897   2.807724809  21.069515046
C        7.057301624   0.008433589   9.775485791
C        8.269880568   2.824591445   1.528938804
H        0.671474011   4.889490071  13.512698302
H       -1.351998155   2.073332276  20.379781380
H        6.651852655   0.742826182   9.085745513
H        8.675334861   3.558983977   2.218662440
C        0.215880171   5.347100818  11.517186503
C       -0.896387183   2.530941535  22.375308166
C        7.107446499   0.285215435  11.081267347
C        8.219723893   3.101374718   0.223145689
H        0.580802033   4.400250589  11.138114117
H        3.080856524   1.584093632   0.161112311
H        6.742524637   1.232065664  11.460339733
H        4.242470146   4.048222622  22.437341539
C       -0.193599403   1.480196319  14.809529899
C       -0.486969840   4.296356761  19.082953854
C        7.516936113   4.152119935   7.788923955
C        7.810296510   1.335959493   3.515499996
O        4.882496402   2.681312000   5.700161383
O       10.444691644   5.497470909   5.604257038
O        2.440840304   2.951004254  16.898282437
O       -3.121364973   0.134845344  16.994196812
O        5.257283106   0.448102667   5.506133772
O       10.069904815   3.264260842   5.798284410
O        2.066043564   5.184213587  17.092320077
O       -2.746568105   2.368055412  16.800169444
O       -1.553035415   1.105537179   8.385132390
O        5.214704122   3.921695494   2.914094740
O        8.876372125   4.526779074  14.213321464
O        2.108622549   1.710620760  19.684359110
O       -0.684162536   4.386396458   8.824911321
O        4.345830953   1.570238623   2.474315534
O        8.007499246   1.245919795  13.773542533
O        2.977495718   4.062077630  20.124138316
O       -0.154591128   2.688688553  15.198284597
O       -0.525933260   5.504845977  18.694194943
O        7.477917799   2.943627701   7.400169253
O        7.849269966   0.127470276   3.904248877
O       -0.191714623   0.474143710  15.610482761
O       -0.488810135   3.290301118  18.282006219
O        7.515051333   5.158172543   6.987971093
O        7.812136805   2.342015136   4.316447631
S       -0.504216412   0.206515354   8.907738816
S        4.165884797   3.022673648   2.391488847
S        7.827543082   5.425800900  13.690715034
S        3.157451913   2.609642606  20.206965007
Ca       6.471133525   4.187327698   5.001066137
Ca       8.856044823   1.371169515   6.303351876
Ca       0.852193141   1.444988556  17.597377678
Ca      -1.532718152   4.261146739  16.295101974



     Writing output data file pwscf.save
     NEW-OLD atomic charge density approx. for the potential

     Check: negative/imaginary core charge=   -0.000008    0.000000

     negative rho (up, down):  5.544E-05 0.000E+00
     extrapolated charge  453.87462, renormalised to  464.00000

     total cpu time spent up to now is      156.2 secs

     per-process dynamical memory:   138.1 Mb

     Self-consistent Calculation

     iteration #  1     ecut=    50.00 Ry     beta=0.70
     Davidson diagonalization with overlap
     WARNING:     2 eigenvalues not converged
     c_bands:  2 eigenvalues not converged
     ethr =  1.00E-06,  avg # of iterations = 20.0

     negative rho (up, down):  8.789E-08 0.000E+00

     total cpu time spent up to now is      163.8 secs

     total energy              =   -2826.07017747 Ry
     Harris-Foulkes estimate   =   -2871.84524855 Ry
     estimated scf accuracy    <       1.38838804 Ry

     iteration #  2     ecut=    50.00 Ry     beta=0.70
     Davidson diagonalization with overlap
     ethr =  2.99E-04,  avg # of iterations =  7.0

     total cpu time spent up to now is      171.0 secs

     total energy              =   -2827.02734641 Ry
     Harris-Foulkes estimate   =   -2827.21685491 Ry
     estimated scf accuracy    <       0.65211241 Ry

     iteration #  3     ecut=    50.00 Ry     beta=0.70
     Davidson diagonalization with overlap
     ethr =  1.41E-04,  avg # of iterations =  1.0

     negative rho (up, down):  6.148E-06 0.000E+00

     total cpu time spent up to now is      173.1 secs

     total energy              =   -2826.93145786 Ry
     Harris-Foulkes estimate   =   -2827.04958192 Ry
     estimated scf accuracy    <       0.24401650 Ry

     iteration #  4     ecut=    50.00 Ry     beta=0.70
     Davidson diagonalization with overlap
     ethr =  5.26E-05,  avg # of iterations =  4.0

     negative rho (up, down):  6.570E-06 0.000E+00

     total cpu time spent up to now is      176.4 secs

     total energy              =   -2827.03902771 Ry
     Harris-Foulkes estimate   =   -2827.05631529 Ry
     estimated scf accuracy    <       0.08582564 Ry

     iteration #  5     ecut=    50.00 Ry     beta=0.70
     Davidson diagonalization with overlap
     ethr =  1.85E-05,  avg # of iterations =  2.0

     negative rho (up, down):  2.021E-04 0.000E+00

     total cpu time spent up to now is      179.2 secs

     total energy              =   -2827.01100153 Ry
     Harris-Foulkes estimate   =   -2827.04073164 Ry
     estimated scf accuracy    <       0.04819764 Ry

     iteration #  6     ecut=    50.00 Ry     beta=0.70
     Davidson diagonalization with overlap
     ethr =  1.04E-05,  avg # of iterations =  7.0

     negative rho (up, down):  2.053E-04 0.000E+00

     total cpu time spent up to now is      183.2 secs

     total energy              =   -2827.03679248 Ry
     Harris-Foulkes estimate   =   -2827.04291477 Ry
     estimated scf accuracy    <       0.03932473 Ry

     iteration #  7     ecut=    50.00 Ry     beta=0.70
     Davidson diagonalization with overlap
     ethr =  8.48E-06,  avg # of iterations =  2.0

     negative rho (up, down):  1.835E-04 0.000E+00

     total cpu time spent up to now is      185.7 secs

     total energy              =   -2827.02561193 Ry
     Harris-Foulkes estimate   =   -2827.03721060 Ry
     estimated scf accuracy    <       0.02461058 Ry

     iteration #  8     ecut=    50.00 Ry     beta=0.70
     Davidson diagonalization with overlap
     ethr =  5.30E-06,  avg # of iterations =  3.0

     negative rho (up, down):  1.435E-04 0.000E+00

     total cpu time spent up to now is      188.4 secs

     total energy              =   -2827.03274055 Ry
     Harris-Foulkes estimate   =   -2827.03407466 Ry
     estimated scf accuracy    <       0.00363100 Ry

     iteration #  9     ecut=    50.00 Ry     beta=0.70
     Davidson diagonalization with overlap
     ethr =  7.83E-07,  avg # of iterations =  9.0

     negative rho (up, down):  8.383E-05 0.000E+00

     total cpu time spent up to now is      191.7 secs

     total energy              =   -2827.03266131 Ry
     Harris-Foulkes estimate   =   -2827.03299143 Ry
     estimated scf accuracy    <       0.00083328 Ry

     iteration # 10     ecut=    50.00 Ry     beta=0.70
     Davidson diagonalization with overlap
     ethr =  1.80E-07,  avg # of iterations =  8.0

     negative rho (up, down):  6.082E-05 0.000E+00

     total cpu time spent up to now is      195.9 secs

     total energy              =   -2827.03303552 Ry
     Harris-Foulkes estimate   =   -2827.03309851 Ry
     estimated scf accuracy    <       0.00018101 Ry

     iteration # 11     ecut=    50.00 Ry     beta=0.70
     Davidson diagonalization with overlap
     ethr =  3.90E-08,  avg # of iterations =  4.0

     negative rho (up, down):  4.049E-05 0.000E+00

     total cpu time spent up to now is      198.5 secs

     total energy              =   -2827.03303617 Ry
     Harris-Foulkes estimate   =   -2827.03305137 Ry
     estimated scf accuracy    <       0.00004158 Ry

     iteration # 12     ecut=    50.00 Ry     beta=0.70
     Davidson diagonalization with overlap
     ethr =  8.96E-09,  avg # of iterations =  8.0

     negative rho (up, down):  4.787E-05 0.000E+00

     total cpu time spent up to now is      202.5 secs

     total energy              =   -2827.03305072 Ry
     Harris-Foulkes estimate   =   -2827.03305985 Ry
     estimated scf accuracy    <       0.00002746 Ry

     iteration # 13     ecut=    50.00 Ry     beta=0.70
     Davidson diagonalization with overlap
     ethr =  5.92E-09,  avg # of iterations =  4.0

     negative rho (up, down):  4.684E-05 0.000E+00

     total cpu time spent up to now is      205.2 secs

     total energy              =   -2827.03305185 Ry
     Harris-Foulkes estimate   =   -2827.03305501 Ry
     estimated scf accuracy    <       0.00000957 Ry

     iteration # 14     ecut=    50.00 Ry     beta=0.70
     Davidson diagonalization with overlap
     ethr =  2.06E-09,  avg # of iterations =  4.0

     negative rho (up, down):  4.714E-05 0.000E+00

     total cpu time spent up to now is      207.9 secs

     total energy              =   -2827.03305233 Ry
     Harris-Foulkes estimate   =   -2827.03305352 Ry
     estimated scf accuracy    <       0.00000464 Ry

     iteration # 15     ecut=    50.00 Ry     beta=0.70
     Davidson diagonalization with overlap
     ethr =  1.00E-09,  avg # of iterations =  3.0

     negative rho (up, down):  5.211E-05 0.000E+00

     total cpu time spent up to now is      210.4 secs

     total energy              =   -2827.03305196 Ry
     Harris-Foulkes estimate   =   -2827.03305260 Ry
     estimated scf accuracy    <       0.00000173 Ry

[...]
O        8.174534483  -0.238189340   3.669109834
O       -0.312390504   0.648628727  16.045176495
O       -0.425617781   3.095345734  18.506169648
O        7.845446475   4.245726179   6.986713344
O        7.958663390   1.799009172   4.525720193
S       -0.344920872  -0.159753712   9.220484479
S        4.112747898   2.288082738   2.295206601
S        7.877966480   5.054108618  13.811405363
S        3.420308073   2.606272168  20.736683238
Ca       6.553841202   3.558114442   5.004557105
Ca       9.254828137   1.108803011   6.506862708
Ca       0.979204413   1.336240464  18.027322507
Ca      -1.721782529   3.785551895  16.525027133



     Writing output data file pwscf.save
     NEW-OLD atomic charge density approx. for the potential

     Check: negative/imaginary core charge=   -0.000007    0.000000

     negative rho (up, down):  3.948E-08 0.000E+00
     extrapolated charge  464.07617, renormalised to  464.00000

     total cpu time spent up to now is     3065.8 secs

     per-process dynamical memory:   138.1 Mb

     Self-consistent Calculation

     iteration #  1     ecut=    50.00 Ry     beta=0.70
     Davidson diagonalization with overlap
     ethr =  1.00E-06,  avg # of iterations =  5.0

     negative rho (up, down):  5.898E-08 0.000E+00

     total cpu time spent up to now is     3069.9 secs

     total energy              =   -2827.32278524 Ry
     Harris-Foulkes estimate   =   -2827.04716379 Ry
     estimated scf accuracy    <       0.00313678 Ry

     iteration #  2     ecut=    50.00 Ry     beta=0.70
     Davidson diagonalization with overlap
     ethr =  6.76E-07,  avg # of iterations =  1.0

     negative rho (up, down):  4.449E-08 0.000E+00

     total cpu time spent up to now is     3072.0 secs

     total energy              =   -2827.32266961 Ry
     Harris-Foulkes estimate   =   -2827.32295619 Ry
     estimated scf accuracy    <       0.00068159 Ry

     iteration #  3     ecut=    50.00 Ry     beta=0.70
     Davidson diagonalization with overlap
     ethr =  1.47E-07,  avg # of iterations =  4.0

     negative rho (up, down):  4.287E-08 0.000E+00

     total cpu time spent up to now is     3075.1 secs

     total energy              =   -2827.32286020 Ry
     Harris-Foulkes estimate   =   -2827.32287575 Ry
     estimated scf accuracy    <       0.00005529 Ry

     iteration #  4     ecut=    50.00 Ry     beta=0.70
     Davidson diagonalization with overlap
     ethr =  1.19E-08,  avg # of iterations =  3.0

     negative rho (up, down):  4.059E-08 0.000E+00

     total cpu time spent up to now is     3077.5 secs

     total energy              =   -2827.32286444 Ry
     Harris-Foulkes estimate   =   -2827.32286697 Ry
     estimated scf accuracy    <       0.00001410 Ry

     iteration #  5     ecut=    50.00 Ry     beta=0.70
     Davidson diagonalization with overlap
     ethr =  3.04E-09,  avg # of iterations =  4.0

     negative rho (up, down):  4.030E-08 0.000E+00

     total cpu time spent up to now is     3080.2 secs

     total energy              =   -2827.32286625 Ry
     Harris-Foulkes estimate   =   -2827.32286772 Ry
     estimated scf accuracy    <       0.00000813 Ry

     iteration #  6     ecut=    50.00 Ry     beta=0.70
     Davidson diagonalization with overlap
     ethr =  1.75E-09,  avg # of iterations =  1.0

     negative rho (up, down):  3.935E-08 0.000E+00

     total cpu time spent up to now is     3082.4 secs

     total energy              =   -2827.32286535 Ry
     Harris-Foulkes estimate   =   -2827.32286659 Ry
     estimated scf accuracy    <       0.00000515 Ry

     iteration #  7     ecut=    50.00 Ry     beta=0.70
     Davidson diagonalization with overlap
     ethr =  1.11E-09,  avg # of iterations =  4.0

     negative rho (up, down):  3.939E-08 0.000E+00

     total cpu time spent up to now is     3085.3 secs

     total energy              =   -2827.32286491 Ry
     Harris-Foulkes estimate   =   -2827.32286676 Ry
     estimated scf accuracy    <       0.00000567 Ry

     iteration #  8     ecut=    50.00 Ry     beta=0.70
     Davidson diagonalization with overlap
     ethr =  1.11E-09,  avg # of iterations =  5.0

     negative rho (up, down):  3.953E-08 0.000E+00

     total cpu time spent up to now is     3088.2 secs

     total energy              =   -2827.32286551 Ry
     Harris-Foulkes estimate   =   -2827.32286600 Ry
     estimated scf accuracy    <       0.00000254 Ry

     iteration #  9     ecut=    50.00 Ry     beta=0.70
     Davidson diagonalization with overlap
     ethr =  5.48E-10,  avg # of iterations =  4.0

     negative rho (up, down):  3.993E-08 0.000E+00

     total cpu time spent up to now is     3090.8 secs

     total energy              =   -2827.32286514 Ry
     Harris-Foulkes estimate   =   -2827.32286580 Ry
     estimated scf accuracy    <       0.00000230 Ry

     iteration # 10     ecut=    50.00 Ry     beta=0.70
     Davidson diagonalization with overlap
     ethr =  4.95E-10,  avg # of iterations =  3.0

     negative rho (up, down):  4.019E-08 0.000E+00

     total cpu time spent up to now is     3093.2 secs

     total energy              =   -2827.32286508 Ry
     Harris-Foulkes estimate   =   -2827.32286529 Ry
     estimated scf accuracy    <       0.00000083 Ry

     iteration # 11     ecut=    50.00 Ry     beta=0.70
     Davidson diagonalization with overlap
     ethr =  1.79E-10,  avg # of iterations =  4.0

     negative rho (up, down):  4.017E-08 0.000E+00

     total cpu time spent up to now is     3096.1 secs

     total energy              =   -2827.32286523 Ry
     Harris-Foulkes estimate   =   -2827.32286532 Ry
     estimated scf accuracy    <       0.00000049 Ry

     iteration # 12     ecut=    50.00 Ry     beta=0.70
     Davidson diagonalization with overlap
     ethr =  1.05E-10,  avg # of iterations =  3.0

     negative rho (up, down):  4.018E-08 0.000E+00

     total cpu time spent up to now is     3098.5 secs

     total energy              =   -2827.32286520 Ry
     Harris-Foulkes estimate   =   -2827.32286526 Ry
     estimated scf accuracy    <       0.00000030 Ry

     iteration # 13     ecut=    50.00 Ry     beta=0.70
     Davidson diagonalization with overlap
     ethr =  6.45E-11,  avg # of iterations =  4.0

     negative rho (up, down):  4.023E-08 0.000E+00

     total cpu time spent up to now is     3101.4 secs

     total energy              =   -2827.32286508 Ry
     Harris-Foulkes estimate   =   -2827.32286528 Ry
     estimated scf accuracy    <       0.00000044 Ry

     iteration # 14     ecut=    50.00 Ry     beta=0.70
     Davidson diagonalization with overlap
     ethr =  6.45E-11,  avg # of iterations =  4.0

     negative rho (up, down):  4.012E-08 0.000E+00

     total cpu time spent up to now is     3104.4 secs

     total energy              =   -2827.32286513 Ry
     Harris-Foulkes estimate   =   -2827.32286526 Ry
     estimated scf accuracy    <       0.00000035 Ry

     iteration # 15     ecut=    50.00 Ry     beta=0.70
     Davidson diagonalization with overlap
     ethr =  6.45E-11,  avg # of iterations =  3.0

     negative rho (up, down):  4.022E-08 0.000E+00

     total cpu time spent up to now is     3106.3 secs

     End of self-consistent calculation

          k = 0.0000 0.0000 0.0000 ( 29362 PWs)   bands (ev):

   -36.4752 -36.4752 -36.4688 -36.4688 -20.8159 -20.8154 -20.8151 -20.8146
   -19.6098 -19.6097 -19.6034 -19.6033 -19.0394 -19.0393 -19.0285 -19.0284
   -18.1051 -18.1049 -18.1039 -18.1038 -17.9444 -17.9443 -17.8836 -17.8835
   -17.6371 -17.6370 -17.5707 -17.5705 -17.4169 -17.4169 -17.4032 -17.4032
   -16.8187 -16.8186 -16.8121 -16.8120 -16.3946 -16.3945 -16.3714 -16.3713
   -14.6239 -14.6114 -14.6053 -14.5865 -14.5547 -14.5378 -14.4943 -14.4849
   -12.4257 -12.4085 -12.3916 -12.3782 -11.9339 -11.9092 -11.9069 -11.8974
   -11.4460 -11.4450 -11.3572 -11.3443 -11.3346 -11.3209 -11.2811 -11.2792
   -10.0873 -10.0859 -10.0707 -10.0618  -8.7730  -8.7625  -8.7573  -8.7249
    -8.1515  -8.1377  -8.0823  -8.0559  -7.9435  -7.9118  -7.8832  -7.8696
    -7.4967  -7.4887  -7.4748  -7.4581  -6.8045  -6.7714  -6.6101  -6.6081
    -6.5742  -6.5542  -6.5280  -6.5100  -6.2482  -6.0727  -6.0637  -6.0197
    -5.6866  -5.5092  -5.4858  -5.4054  -4.9180  -4.9061  -4.8972  -4.8952
    -4.8324  -4.8162  -4.8147  -4.7801  -4.5449  -4.4815  -4.4722  -4.4709
    -4.4523  -4.4455  -4.4146  -4.3474  -4.1768  -4.1388  -4.1312  -4.0997
    -4.0675  -4.0367  -3.9514  -3.8769  -3.8450  -3.8132  -3.7720  -3.7284
    -3.6902  -3.6226  -3.6054  -3.5869  -3.5072  -3.4906  -3.4549  -3.4536
    -3.4027  -3.2562  -3.2503  -3.2093  -3.1389  -3.1384  -3.1297  -3.0940
    -3.0037  -2.8658  -2.8107  -2.8037  -2.7446  -2.7173  -2.6805  -2.6685
    -2.5414  -2.5078  -2.4893  -2.4287  -2.4091  -2.3693  -2.3636  -2.3159
    -2.0490  -2.0233  -1.9278  -1.9260  -1.7348  -1.6988  -1.6661  -1.6593
    -1.5256  -1.5159  -1.3619  -1.3580  -1.2386  -1.2283  -1.2240  -1.1111
    -1.0087  -0.9873  -0.9825  -0.9657  -0.7888  -0.7752  -0.6754  -0.6682
    -0.5900  -0.5683  -0.5625  -0.5433  -0.3283  -0.2939  -0.2372  -0.1907
    -0.1584  -0.1422  -0.0808  -0.0568   0.0318   0.0336   0.0381   0.0781
     0.1245   0.1297   0.1491   0.2298   0.2688   0.2925   0.2993   0.3048
     0.3593   0.4055   0.4345   0.4600   0.4794   0.5586   0.6025   0.6134
     0.7203   0.7516   0.7600   0.8113   0.9229   0.9548   0.9600   0.9896
     1.0735   1.0768   1.0907   1.0949   1.4479   1.4522   1.5091   1.5137
     4.5643   4.5890   4.6433   4.6778   5.1810   5.2646   5.3540   5.3769
     5.5799   5.5945   5.6299   5.6371   5.7600   5.8086   5.9092   5.9387
     6.4272   6.5763   6.7076   6.7402   6.7495   6.7591   7.0407   7.3473
     7.3847   7.4464   7.4557   7.4763   7.5957   7.6604   7.7292   7.7426
     7.7459   7.8021   7.9438   8.0627   8.1821   8.2150   8.2410   8.3033
     8.3580   8.4448   8.4969   8.5099   8.5233   8.5516

     the Fermi energy is     2.9711 ev

!    total energy              =   -2827.32286513 Ry
     Harris-Foulkes estimate   =   -2827.32286516 Ry
     estimated scf accuracy    <       0.00000004 Ry

     total all-electron energy =    -16513.427725 Ry

     The total energy is the sum of the following terms:

     one-electron contribution =   -2022.92085789 Ry
     hartree contribution      =    1200.80218946 Ry
     xc contribution           =    -523.77590249 Ry
     ewald contribution        =    -518.30026861 Ry
     one-center paw contrib.   =    -963.12802560 Ry
     smearing contrib. (-TS)   =      -0.00000000 Ry

     convergence has been achieved in  15 iterations

     negative rho (up, down):  4.022E-08 0.000E+00

     Forces acting on atoms (Ry/au):

     atom    1 type  2   force =    -0.00009993    0.00186685    0.00007784
     atom    2 type  2   force =    -0.00074768    0.00137250   -0.00055652
     atom    3 type  2   force =     0.00009993   -0.00186685   -0.00007784
     atom    4 type  2   force =     0.00074768   -0.00137250    0.00055652
     atom    5 type  2   force =    -0.00103460    0.00022348    0.00030971
     atom    6 type  2   force =     0.00089145   -0.00043271   -0.00023353
     atom    7 type  2   force =     0.00103460   -0.00022348   -0.00030971
     atom    8 type  2   force =    -0.00089145    0.00043271    0.00023353
     atom    9 type  2   force =     0.00016810   -0.00134484    0.00015483
     atom   10 type  2   force =     0.00060259   -0.00110688   -0.00035898
     atom   11 type  2   force =    -0.00016810    0.00134484   -0.00015483
     atom   12 type  2   force =    -0.00060259    0.00110688    0.00035898
     atom   13 type  1   force =    -0.00060250    0.00079031   -0.00057123
     atom   14 type  1   force =     0.00063335    0.00080300    0.00059905
     atom   15 type  1   force =     0.00060250   -0.00079031    0.00057123
     atom   16 type  1   force =    -0.00063335   -0.00080300   -0.00059905
     atom   17 type  2   force =     0.00119221   -0.00041191    0.00112395
     atom   18 type  2   force =    -0.00196829   -0.00097337   -0.00123685
     atom   19 type  2   force =    -0.00119221    0.00041191   -0.00112395
     atom   20 type  2   force =     0.00196829    0.00097337    0.00123685
     atom   21 type  1   force =     0.00074225    0.00118430   -0.00121773
     atom   22 type  1   force =    -0.00033524    0.00151088    0.00124410
     atom   23 type  1   force =    -0.00074225   -0.00118430    0.00121773
     atom   24 type  1   force =     0.00033524   -0.00151088   -0.00124410
     atom   25 type  2   force =     0.00002656    0.00206718    0.00181376
     atom   26 type  2   force =     0.00020741    0.00282285   -0.00148645
     atom   27 type  2   force =    -0.00002656   -0.00206718   -0.00181376
     atom   28 type  2   force =    -0.00020741   -0.00282285    0.00148645
     atom   29 type  2   force =    -0.00124800   -0.00028482    0.00149978
     atom   30 type  2   force =     0.00108889   -0.00078484   -0.00174669
     atom   31 type  2   force =     0.00124800    0.00028482   -0.00149978
     atom   32 type  2   force =    -0.00108889    0.00078484    0.00174669
     atom   33 type  1   force =     0.00091433    0.00091876    0.00091057
     atom   34 type  1   force =    -0.00093974    0.00108507   -0.00083018
     atom   35 type  1   force =    -0.00091433   -0.00091876   -0.00091057
     atom   36 type  1   force =     0.00093974   -0.00108507    0.00083018
     atom   37 type  2   force =     0.00038700   -0.00097929   -0.00053727
     atom   38 type  2   force =    -0.00059934   -0.00062523    0.00080487
     atom   39 type  2   force =    -0.00038700    0.00097929    0.00053727
     atom   40 type  2   force =     0.00059934    0.00062523   -0.00080487
     atom   41 type  1   force =    -0.00067730   -0.00097287    0.00142338
     atom   42 type  1   force =     0.00060816   -0.00109649   -0.00142040
     atom   43 type  1   force =     0.00067730    0.00097287   -0.00142338
     atom   44 type  1   force =    -0.00060816    0.00109649    0.00142040
     atom   45 type  2   force =    -0.00139863   -0.00030543    0.00004434
     atom   46 type  2   force =     0.00098793   -0.00034601    0.00037076
     atom   47 type  2   force =     0.00139863    0.00030543   -0.00004434
     atom   48 type  2   force =    -0.00098793    0.00034601   -0.00037076
     atom   49 type  2   force =    -0.00117754    0.00022769   -0.00160832
     atom   50 type  2   force =     0.00133810    0.00061868   -0.00141437
     atom   51 type  2   force =     0.00117754   -0.00022769    0.00160832
     atom   52 type  2   force =    -0.00133810   -0.00061868    0.00141437
     atom   53 type  1   force =     0.00046398   -0.00106132    0.00145544
     atom   54 type  1   force =    -0.00025227   -0.00062003   -0.00088651
     atom   55 type  1   force =    -0.00046398    0.00106132   -0.00145544
     atom   56 type  1   force =     0.00025227    0.00062003    0.00088651
     atom   57 type  2   force =    -0.00008620    0.00224713    0.00183057
     atom   58 type  2   force =    -0.00029208    0.00133165    0.00068905
     atom   59 type  2   force =     0.00008620   -0.00224713   -0.00183057
     atom   60 type  2   force =     0.00029208   -0.00133165   -0.00068905
     atom   61 type  1   force =    -0.00163672    0.00122428   -0.00025880
     atom   62 type  1   force =     0.00190263    0.00177966   -0.00000041
     atom   63 type  1   force =     0.00163672   -0.00122428    0.00025880
     atom   64 type  1   force =    -0.00190263   -0.00177966    0.00000041
     atom   65 type  2   force =     0.00142080    0.00132989    0.00098739
     atom   66 type  2   force =    -0.00123627    0.00182436   -0.00119955
     atom   67 type  2   force =    -0.00142080   -0.00132989   -0.00098739
     atom   68 type  2   force =     0.00123627   -0.00182436    0.00119955
     atom   69 type  2   force =     0.00032251    0.00060671    0.00019540
     atom   70 type  2   force =    -0.00056542    0.00000138    0.00135251
     atom   71 type  2   force =    -0.00032251   -0.00060671   -0.00019540
     atom   72 type  2   force =     0.00056542   -0.00000138   -0.00135251
     atom   73 type  1   force =     0.00055298   -0.00220029    0.00032300
     atom   74 type  1   force =    -0.00068875   -0.00234589   -0.00055745
     atom   75 type  1   force =    -0.00055298    0.00220029   -0.00032300
     atom   76 type  1   force =     0.00068875    0.00234589    0.00055745
     atom   77 type  2   force =    -0.00088753   -0.00024390    0.00119980
     atom   78 type  2   force =     0.00126539    0.00034647   -0.00266925
     atom   79 type  2   force =     0.00088753    0.00024390   -0.00119980
     atom   80 type  2   force =    -0.00126539   -0.00034647    0.00266925
     atom   81 type  1   force =    -0.00105971    0.00250076    0.00119170
     atom   82 type  1   force =     0.00081053    0.00206484   -0.00097194
     atom   83 type  1   force =     0.00105971   -0.00250076   -0.00119170
     atom   84 type  1   force =    -0.00081053   -0.00206484    0.00097194
     atom   85 type  2   force =     0.00057203    0.00037552   -0.00084986
     atom   86 type  2   force =    -0.00046095   -0.00076475   -0.00123363
     atom   87 type  2   force =    -0.00057203   -0.00037552    0.00084986
     atom   88 type  2   force =     0.00046095    0.00076475    0.00123363
     atom   89 type  3   force =     0.00009042    0.00047950    0.00018661
     atom   90 type  3   force =    -0.00002241    0.00057577    0.00003914
     atom   91 type  3   force =    -0.00009042   -0.00047950   -0.00018661
     atom   92 type  3   force =     0.00002241   -0.00057577   -0.00003914
     atom   93 type  3   force =     0.00009199   -0.00236527    0.00245035
     atom   94 type  3   force =     0.00049392   -0.00201228   -0.00239402
     atom   95 type  3   force =    -0.00009199    0.00236527   -0.00245035
     atom   96 type  3   force =    -0.00049392    0.00201228    0.00239402
     atom   97 type  3   force =     0.00025581    0.00148242   -0.00247163
     atom   98 type  3   force =    -0.00037960    0.00160624    0.00237650
     atom   99 type  3   force =    -0.00025581   -0.00148242    0.00247163
     atom  100 type  3   force =     0.00037960   -0.00160624   -0.00237650
     atom  101 type  3   force =     0.00027891    0.00234785   -0.00002442
     atom  102 type  3   force =    -0.00040113    0.00304522    0.00000722
     atom  103 type  3   force =    -0.00027891   -0.00234785    0.00002442
     atom  104 type  3   force =     0.00040113   -0.00304522   -0.00000722
     atom  105 type  3   force =    -0.00117426   -0.00069155    0.00061405
     atom  106 type  3   force =     0.00080217   -0.00069776   -0.00057283
     atom  107 type  3   force =     0.00117426    0.00069155   -0.00061405
     atom  108 type  3   force =    -0.00080217    0.00069776    0.00057283
     atom  109 type  3   force =     0.00039480    0.00138607    0.00529413
     atom  110 type  3   force =    -0.00037584    0.00238506   -0.00381229
     atom  111 type  3   force =    -0.00039480   -0.00138607   -0.00529413
     atom  112 type  3   force =     0.00037584   -0.00238506    0.00381229
     atom  113 type  4   force =    -0.00049206   -0.00409767    0.00035236
     atom  114 type  4   force =     0.00101458   -0.00506768    0.00005292
     atom  115 type  4   force =     0.00049206    0.00409767   -0.00035236
     atom  116 type  4   force =    -0.00101458    0.00506768   -0.00005292
     atom  117 type  5   force =     0.00039872   -0.00094966    0.00126093
     atom  118 type  5   force =    -0.00054952   -0.00102412   -0.00129138
     atom  119 type  5   force =    -0.00039872    0.00094966   -0.00126093
     atom  120 type  5   force =     0.00054952    0.00102412    0.00129138

     Total force =     0.025425     Total SCF correction =     0.000566


     entering subroutine stress ...


     negative rho (up, down):  4.022E-08 0.000E+00
