ANIMSTEPS 1
CRYSTAL
PRIMVEC 1
      4.00000  0.00000  0.00000
      3.00000  2.00000  0.00000
      2.00000  3.00000  8.00000
PRIMCOORD 1
2 1
  H    2.500    0.500    3.000 
  H    6.000    1.500    9.200 
