 INFO
nunit      1    1    1
unit   cell
celltype   convcell
shape   parapipedal
 END_INFO
 DIM-GROUP
           3           1
 PRIMVEC
   41.8700000000    0.0000000000    0.0000000000
  -20.9300000000   36.2520000000    0.0000000000
    0.0000000000    0.0000000000   17.5650000000
 CONVVEC
   41.8700000000    0.0000000000    0.0000000000
  -20.9300000000   36.2520000000    0.0000000000
    0.0000000000    0.0000000000   17.5650000000
 PRIMCOORD
         510           1
 30      7.0929990990    17.3448737090    13.1579706410
 30     13.8324883690    18.9173933920     4.3756648020
 30      2.3697146250    33.7314461600    13.1576410880
 30     18.5689515090     2.5262961730     4.3759985480
 30     -9.4639869610    21.4360839950    13.1568118720
 30     30.3839013580    14.8097297510     4.3747545970
 30      7.1550596820    14.5767561130    11.5875539440
 30     13.7747458340    21.6784833320     5.9695154790
 30      4.7298648940    35.1573618230    11.5873514340
 30     16.2031026210     1.0927234350     5.9758562710
 30    -11.8875358600    22.7707374650    11.5886299640
 30     32.8156695080    13.4840550030     5.9727530610
 30     13.7772228490    21.6797045440     2.8070957000
 30      7.1521564630    14.5813007280    14.7559991570
 30     16.1998618900     1.0976426650     2.8089741260
 30      4.7298711070    35.1582677110    14.7549987640
 30     32.8217458750    13.4823285860     2.8053880400
 30    -11.8869347530    22.7718862250    14.7529988040
 30      4.5376312700    15.4769983600    13.1524010930
 30     16.4024098250    20.7902947840     4.3660360170
 30      5.2615507120    32.4404802910    13.1541312690
 30     15.6630002940     3.8068082000     4.4151250680
 30     -9.8028176860    24.5938615420    13.1456151470
 30     30.7260072480    11.6709577580     4.3669295100
  8      6.4815855340    15.4909790940    13.1690076220
  8     14.4555042700    20.7663347410     4.3874364140
  8      4.2817606610    34.1181360900    13.1702035980
  8     16.6557864780     2.1343052680     4.3935272700
  8    -10.7584221700    22.8987223660    13.1691431270
  8     31.6905036340    13.3589333790     4.3859021620
  8      8.2192236140    17.7415448280    11.6211216480
  8     12.7200124540    18.5148893660     5.9334143750
  8      1.4613643110    34.4985496760    11.6190197120
  8     19.4729112450     1.7564998630     5.9321924570
  8     -9.6759735190    20.2657491450    11.6167044030
  8     30.6114131600    15.9806319640     5.9304984730
  8     12.7165703680    18.5125029960     2.8355845680
  8      8.2156746670    17.7390940250    14.7141873780
  8     19.4747747370     1.7536911080     2.8365523550
  8      1.4651143090    34.4968460900    14.7147479010
  8     30.6114455080    15.9855461300     2.8391335920
  8     -9.6772029060    20.2701113210    14.7153434230
  8      3.7884684420    14.7268194980    11.5231196000
  8     17.1212673540    21.5838968020     5.9995468520
  8      6.2898682700    32.1706263830    11.5286039270
  8     14.6492179100     4.0852529780     6.0476329480
  8    -10.0666773560    25.6109301100    11.5079892900
  8     31.0126118200    10.6468162200     6.0071079430
  8     17.1501093180    21.5252791310     2.7285254320
  8      3.7940969540    14.7229271630    14.7945734590
  8     14.6480137910     4.0777580110     2.7687639840
  8      6.2892310000    32.1763136500    14.7936488450
  8     31.0060824960    10.6437938960     2.7377639570
  8    -10.0773054370    25.6082399850    14.7910548220
  8      5.6736471510    14.0997031760    10.3947838850
  8     15.2424160420    22.1550972200     7.1663409990
  8      5.8880661510    34.1172751320    10.3995579130
  8     15.0495944830     2.1364864840     7.1701682580
  8    -11.5582313320    24.2894339100    10.3930101680
  8     32.4911173960    11.9603003910     7.1585825080
  8     15.2582558510    22.1547084290     1.6132965400
  8      5.6717141230    14.1015936190    15.9448034970
  8     15.0492050140     2.1414263400     1.6183985510
  8      5.8875283940    34.1167250400    15.9381119820
  8     32.4942510300    11.9614649180     1.6119026310
  8    -11.5538060010    24.2915363250    15.9410237020
  8      8.1008363180    12.9207929050    12.0000837810
  8     12.8354089740    23.3319625950     5.5051985500
  8     26.5724547690     0.5692776690    12.0033598450
  8     -5.6920391070    35.6974189540     5.5614097790
  8     28.0714999830    22.7810968670    12.0016687750
  8     -7.1643527810    13.4878943210     5.5031885680
  8     12.8339284680    23.3411240590     3.2211763580
  8      8.0929921870    12.9421879290    14.2836658110
  8     -5.6805756750    35.7105026930     3.2768807990
  8     26.5690557680     0.5650039580    14.2854027250
  8     -7.1426153670    13.4735271270     3.2195681060
  8     28.0788682270    22.7799323710    14.2856684270
  8      8.3551242970    15.7298124470    10.5465244670
  8     12.5818634210    20.5247043580     7.0127074000
  8      3.1352081680    35.6205769310    10.5440315810
  8     17.8013595390     0.6330837720     7.0138950860
  8    -11.4869998530    21.1562406450    10.5466236180
  8     32.4212530280    15.0977233960     7.0132730790
  8     12.5817533030    20.5249659560     1.7636578940
  8      8.3537284510    15.7297686010    15.7958435330
  8     17.7973591300     0.6311762400     1.7656768690
  8      3.1349185330    35.6198587900    15.7984533790
  8     32.4222379620    15.0988648790     1.7639111570
  8    -11.4869972890    21.1578167760    15.7933418690
  8      3.8178288020    17.3001178120    13.1711830150
  8     17.1166427550    18.9651911060     4.3906168780
  8      4.0449914280    30.9074404260    13.1731408680
  8     16.8857005200     5.3390661420     4.3913636070
  8     -7.8649958260    24.3014487440    13.1721619260
  8     28.7887646440    11.9590834090     4.3889668150
  8      5.6554403950    18.6512699480    13.1729750400
  8     15.2731053670    17.6184439430     4.3909738260
  8      1.9610964520    31.8353187460    13.1710134420
  8     18.9751542350     4.4220623110     4.3910307400
  8     -7.6188313460    22.0326225480    13.1706501800
  8     28.5231362180    14.2268763080     4.3905108530
  6      8.6448987410    16.9662545850    10.6982199420
  6     12.2880929220    19.2896249590     6.8532979010
  6      1.9190285530    35.2583772930    10.6981779490
  6     19.0168953890     0.9997804640     6.8552247770
  6    -10.5647831060    20.2836950520    10.6976426650
  6     31.4949318240    15.9664881510     6.8532209240
  6     12.2863012570    19.2901871530     1.9167526800
  6      8.6426947590    16.9665557860    15.6378649910
  6     19.0138741400     0.9963954870     1.9153612110
  6      1.9188542480    35.2561506350    15.6370638920
  6     31.4969687720    15.9686544930     1.9170893360
  6    -10.5638761760    20.2857297840    15.6356937780
  6      9.5780671380    17.5675381680     9.6991625420
  6     11.3435432420    18.6917814470     7.8444757730
  6      0.9306027130    35.7740720640     9.7052070160
  6     20.0054608290     0.4882379340     7.8512254090
  6    -10.5182987770    19.1710222910     9.7024894510
  6     31.4429894170    17.0800574400     7.8481423930
  6     11.3434909630    18.6936026680     0.9241124010
  6      9.5782373530    17.5685007990    16.6350354960
  6     19.9997766650     0.4856664790     0.9165899460
  6      0.9270615130    35.7723493650    16.6279355360
  6     31.4447928370    17.0801740720     0.9201188860
  6    -10.5175173690    19.1708894490    16.6295976660
  6     10.0805056240    16.7866984570     8.6463088290
  6     10.8366453710    19.4740921190     8.8942986010
  6     22.2866042130     0.3469867450     8.6524048880
  6     -1.3506315850    35.9166240620     8.9050467290
  6     30.4190647840    19.1219401570     8.6545680320
  6     -9.4956062920    17.1285057870     8.8971145060
  6     10.8394982340    19.4747044640    17.4369924530
  6     10.0793022000    16.7885694740     0.1243319760
  6     -1.3556686490    35.9165653320    17.4254148470
  6     22.2818666560     0.3439306520     0.1172960850
  6     -9.4961930850    17.1268615690    17.4339104500
  6     30.4213606010    19.1226025340     0.1139737300
  6      9.9575401030    18.9143920550     9.8177703280
  6     10.9594930860    17.3465847320     7.7227697390
  6     -0.4264763500    35.4350609290     9.8282896050
  6     21.3622784260     0.8284170330     7.7290754000
  6     -9.5408009580    18.1696988590     9.8203196990
  6     30.4644149600    18.0804968660     7.7310895730
  6     10.9583634470    17.3488122110     1.0473074680
  6      9.9604691220    18.9143039460    16.5136886380
  6     21.3568222410     0.8247574430     1.0399404970
  6     -0.4305040290    35.4357900060    16.5021727740
  6     30.4670464850    18.0815527290     1.0377548670
  6     -9.5419547960    18.1678011640    16.5100997870
  6      4.4155661290    14.3113326280    10.4864906430
  6     16.5022478660    21.9652783600     7.0526345320
  6      6.3322440660    32.9213982800    10.4918626610
  6     14.6010646850     3.3304962870     7.0810858360
  6    -10.7472108910    25.2740449990    10.4768106230
  6     31.6750000800    10.9790910730     7.0516935350
  6     16.5162777600    21.9447668230     1.6979279450
  6      4.4131282110    14.3129218760    15.8384593250
  6     14.6028221740     3.3370337770     1.7247191630
  6      6.3314415380    32.9202660990    15.8352302410
  6     31.6781410380    10.9807540450     1.7008790370
  6    -10.7435496620    25.2771286850    15.8336537820
  6      3.6018179420    14.0701437450     9.2636433020
  6     17.3174529430    22.1976244390     8.2766473170
  6      6.9409774740    32.3405141190     9.2659592250
  6     13.9798808380     3.9099525770     8.3025341720
  6    -10.5579440840    26.0991565060     9.2526202280
  6     31.4673832850    10.1560678370     8.2756149440
  6     17.3219447610    22.1918211910     0.4729894630
  6      3.5966148300    14.0733089530    17.0618719620
  6     13.9871231130     3.9238528760     0.5011045370
  6      6.9401622530    32.3370732980    17.0619486200
  6     31.4744060880    10.1604222920     0.4755986040
  6    -10.5469014720    26.1063552720    17.0552850590
  6      2.2658920450    14.4969219950     9.2051827770
  6     18.6516375480    21.7676509500     8.3382066220
  6      7.2360182350    30.9703195280     9.2035731880
  6     13.6782444500     5.2794293590     8.3606561450
  6     -9.5233454910    27.0456844500     9.1923152830
  6     30.4277929150     9.2152237590     8.3364303890
  6     18.6577450330    21.7674318730     0.4116735990
  6      2.2607357000    14.4992020200    17.1237527830
  6     13.6928963850     5.2946091460     0.4364458040
  6      7.2365297250    30.9673326340    17.1268141530
  6     30.4354538650     9.2183519340     0.4173366150
  6     -9.5118522850    27.0520311670    17.1173976340
  6      1.5376564120    14.3613842480     8.0256251900
  6     19.3766539160    21.9006891880     9.5203138530
  6      7.7127098270    30.4109859100     8.0211082770
  6     13.1940419710     5.8403580320     9.5396691210
  6     -9.2817242160    27.7456549840     8.0130451780
  6     30.1794036920     8.5204599810     9.5182581030
  6     19.3821003050    21.9052271880    16.7961053520
  6      1.5344975090    14.3633606840     0.7400744970
  6     13.2105452720     5.8542973770    16.8201447750
  6      7.7127061320    30.4092058410     0.7454999880
  6     30.1857783370     8.5217823620    16.8023664060
  6     -9.2695739090    27.7504311450     0.7332172860
  6      2.1132457860    13.7764310380     6.8805817700
  6     18.7999559460    22.4874312290    10.6636251730
  6      7.9300042490    31.2062721130     6.8792864380
  6     12.9762582160     5.0477988210    10.6837118050
  6    -10.0784246400    27.5378849120     6.8701787360
  6     30.9738795360     8.7270193690    10.6630377630
  6     18.8019624880    22.4910866880    15.6545387870
  6      2.1112398680    13.7790978120     1.8848677020
  6     12.9860825770     5.0603348610    15.6784538880
  6      7.9285509390    31.2047261660     1.8875116510
  6     30.9783174590     8.7281627220    15.6563663120
  6    -10.0663395980    27.5425612680     1.8760537280
  6      3.4403841230    13.3105240330     6.9688210440
  6     17.4726764030    22.9526985040    10.5741274050
  6      7.6691995250    32.5881710230     6.9697595380
  6     13.2373123510     3.6658284050    10.5950763750
  6    -11.1436238850    26.6196207590     6.9602475530
  6     32.0409432930     9.6429534440    10.5734998480
  6     17.4737977620    22.9542957010    15.7448476460
  6      3.4386069020    13.3142027770     1.7940561350
  6     13.2425553910     3.6776566620    15.7719109950
  6      7.6665946680    32.5863190310     1.7952989380
  6     32.0450382270     9.6452666400    15.7431188200
  6    -11.1319479320    26.6248390980     1.7844294620
  6      4.1806190640    13.4673160090     8.1365930880
  6     16.7354348550    22.7964988570     9.4046974070
  6      7.1675377720    33.1472339440     8.1405786390
  6     13.7460302210     3.1050784800     9.4276318010
  6    -11.3730738140    25.8986042410     8.1283031420
  6     32.2769333170    10.3584555890     9.4039488920
  6     16.7369966120    22.7947952910    16.9143361710
  6      4.1764323680    13.4709881220     0.6245690460
  6     13.7492787930     3.1184365660    16.9411520240
  6      7.1658000310    33.1439107910     0.6231344800
  6     32.2826832610    10.3626098230    16.9116323280
  6    -11.3614523440    25.9057343740     0.6156150760
  6      1.3660932210    13.6854663190     5.6067123210
  6     19.5470327140    22.5804566430    11.9369365410
  6      8.3823166780    30.6067338900     5.6058923660
  6     12.5249418290     5.6494129480    11.9573049290
  6     -9.7849884860    28.2312220400     5.5969798580
  6     30.6807326020     8.0349395610    11.9373937870
  6     19.5481463500    22.5831841130    14.3813260480
  6      1.3657349830    13.6868780810     3.1601494290
  6     12.5309492340     5.6575817930    14.4032207080
  6      8.3811198500    30.6066417380     3.1618721960
  6     30.6827187080     8.0347109270    14.3832153210
  6     -9.7765664170    28.2338818440     3.1514801320
  6      2.0515959280    13.7496873980     4.3833842440
  6     18.8613211980    22.5184727200    13.1596189440
  6      7.9835066360    31.1695237100     4.3840650500
  6     12.9254464990     5.0908868130    13.1810207160
  6    -10.0684173270    27.6064971150     4.3727914350
  6     30.9684626100     8.6609285970    13.1601610920
  6     -0.0334175490    13.5774537300     5.5886149320
  6     20.9465660120    22.6887872690    11.9555103580
  6      9.1755751280    29.4488329050     5.5878596160
  6     11.7312372600     6.8065915670    11.9738234160
  6     -9.1805434320    29.4976551230     5.5813745860
  6     30.0767416960     6.7681132250    11.9569445250
  6     20.9478222980    22.6903222390    14.3623938450
  6     -0.0336120080    13.5783348990     3.1808429920
  6     11.7379956520     6.8158900390    14.3812868900
  6      9.1745299790    29.4491103840     3.1813086860
  6     30.0779534140     6.7677931360    14.3646587880
  6     -9.1705859460    29.4999136750     3.1740732090
  6     -0.7613375530    13.5388622610     4.3849537920
  6     21.6759851550    22.7281343820    13.1587769890
  6      9.5723543270    28.8373295320     4.3844319900
  6     11.3366723340     7.4218143340    13.1760323490
  6     -8.8458832570    30.1487241900     4.3798939130
  6     29.7484188740     6.1172888400    13.1608916400
  6     -2.2469144290    13.4804723200     4.3842456910
  6     23.1623532710    22.7853941430    13.1570056370
  6     10.3651187020    27.5797414680     4.3825978170
  6     10.5432553200     8.6787944630    13.1705145730
  6     -8.1539406260    31.4641759750     4.3867599490
  6     29.0574373380     4.8006146330    13.1587752960
  6     -2.9804695740    13.4689522070     3.1790757270
  6     23.9025600490    22.7961010230    14.3583755470
  6     10.7417373930    26.9507683080     3.1771718420
  6     10.1621640840     9.3148503380    14.3707376570
  6     -7.7978567370    32.1164727160     3.1874870520
  6     28.6973889590     4.1543652820    14.3602677770
  6     23.8970442280    22.7962098410    11.9522248740
  6     -2.9862724510    13.4696660740     5.5861503400
  6     10.1684619400     9.3065325920    11.9636668450
  6     10.7448218950    26.9443264500     5.5838099720
  6     28.6993978710     4.1597523630    11.9536381420
  6     -7.7929233890    32.0979699770     5.5944569240
  6     -4.3715798630    13.4611859710     3.1716917990
  6     25.2947918050    22.8029354190    14.3587571960
  6     11.4475462420    25.7515952390     3.1685630790
  6      9.4608008040    10.5169161180    14.3689884720
  6     -7.1054028140    33.3236740730     3.1915353580
  6     28.0012644910     2.9490142000    14.3608670540
  6     25.2889710560    22.8030879090    11.9446943000
  6     -4.3781928870    13.4622774610     5.5869968440
  6      9.4669113750    10.5078722900    11.9535431920
  6     11.4507991380    25.7446503650     5.5834114750
  6     28.0035865840     2.9546639400    11.9457909950
  6     -7.1018851590    33.3053426920     5.6069907040
  6     -5.0882205920    13.4631991500     4.3774471040
  6     26.0071701350    22.8010071870    13.1500417620
  6     11.8080312980    25.1305479060     4.3734814610
  6      9.1096623960    11.1314482500    13.1582314010
  6     -6.7432384960    33.9299375320     4.4034988780
  6     27.6380306550     2.3378182880    13.1513817560
  6      8.3793174290    12.4272927530    13.1479102890
  6     12.5479760170    23.8386426890     4.3662051580
  6     26.8716836320     1.0620977660    13.1463297960
  6     -5.9829304110    35.2085646240     4.4145131100
  6     27.4968188220    22.7872351010    13.1459371840
  6     -6.5756623960    13.4747793320     4.3673744920
  6      4.3921442240    18.4398702910    13.1704120350
  6     16.5361532520    17.8281598410     4.3902780220
  6      2.7702888560    30.8431709620    13.1706472700
  6     18.1595226880     5.4097939580     4.3898648920
  6     -7.1692478120    23.2318798530    13.1715516310
  6     28.0834983520    13.0236305070     4.3897352160
  6      3.5005415460    19.6297784600    13.1662637640
  6     17.4221146080    16.6362884720     4.3886310610
  6      2.1792973270    29.4801258880    13.1657654710
  6     18.7420437070     6.7765605040     4.3868000500
  6     -5.6943749730    23.4074900260    13.1726950840
  6     26.6082070100    12.8441319070     4.3895884240
  6     18.8128391490    16.8032812840     4.3357121580
  6      3.0193897850    28.3587550220    13.2123392510
  6     17.8961363540     7.8939904140     4.3423894900
  6     -5.1481388570    24.6975109230    13.2279349970
  6     26.0585862060    11.5553723790     4.3401974210
  6      2.1095950210    19.4595627100    13.1125107220
  6     19.6526578560    15.6966592550     4.3302201980
  6      2.4816801930    27.0777732920    13.2086808780
  6     18.4274530060     9.1780130180     4.3382641560
  6     -3.7704505390    24.8769606040    13.2348553420
  6     24.6798914090    11.3793277410     4.3352680110
  6      1.2654329570    20.5637428470    13.1038876550
  6      1.7707071530    21.8789511040    13.1607617900
  6     19.1422214040    14.3836124010     4.3866815180
  6      1.0897257660    26.8624438180    13.1475134670
  6     19.8191577010     9.3991834790     4.3863265300
  6     -2.8847254540    23.7815983550    13.1758037650
  6     23.7955861510    12.4763758300     4.3882997770
  6      3.1722136420    22.0291677230    13.2174580650
  6     17.7402606000    14.2369859010     4.4421601900
  6     20.6527253410     8.2621927470     4.4332230620
  6      0.2614120110    28.0034218230    13.0978217870
  6     24.3682240220    13.7645043850     4.4399238780
  6     -3.4542249530    22.4927147150    13.1112534810
  6      4.0247541420    20.9288547900    13.2145227490
  6     16.8919020970    15.3400992840     4.4386977140
  6     20.1286638420     6.9731613950     4.4297191570
  6      0.7918132270    29.2902593800    13.1113139850
  6     25.7474470530    13.9495136570     4.4365649230
  6     -4.8329147180    22.3039825350    13.1156900240
  6      0.8611909760    23.0531293060    13.1606301920
  6     20.0491930460    13.2081915010     4.3874902730
  6      0.5270732760    25.4882972380    13.1456186600
  6     20.3802912710    10.7737836170     4.3873680550
  6     -1.4138068550    23.9821499720    13.1739505070
  6     22.3238331730    12.2780647100     4.3888495970
  6     -0.5331141110    22.8893589960    13.1890083130
  6     21.4438791590    13.3712551390     4.3891436170
  6      1.3663767960    24.3623404330    13.1328649870
  6     19.5414606050    11.8997820380     4.3861992130
  6     -0.8593761180    25.2720446000    13.1582573330
  6     21.7670633370    10.9893102110     4.3889615210
  1      9.7691216950    15.7425662340     8.5734606870
  1     11.1469865060    20.5184930490     8.9671165450
  1     23.3469057910     0.5974280470     8.5782123630
  1     -2.4109175760    35.6662619070     8.9794301460
  1     29.6675299500    19.9111285080     8.5839810590
  1     -8.7445962270    16.3388947120     8.9678222310
  1     11.1515746830    20.5185272680    17.3627335610
  1      9.7663206750    15.7450468030     0.1989733580
  1     -2.4160194460    35.6672296200    17.3487859110
  1     23.3422590600     0.5933531750     0.1932980760
  1     -8.7462702020    16.3362597860    17.3621417590
  1     29.6707827030    19.9126280210     0.1856528360
  1      9.5519360300    19.5021455870    10.6438127330
  1     11.3641496620    16.7593288300     6.8959815480
  1     -0.7329420960    34.7927767970    10.6564440780
  1     21.6683882500     1.4706515480     6.9007796680
  1     -8.8270709550    18.2289363550    10.6445514570
  1     29.7503126200    18.0212152330     6.9070936160
  1     11.3615674210    16.7621358310     1.8751304050
  1      9.5566199380    19.5010016100    15.6859839780
  1     21.6631379430     1.4656255500     1.8690333470
  1     -0.7369283150    34.7953814440    15.6724236030
  1     29.7538283590    18.0240031540     1.8624997690
  1     -8.8295913280    18.2255424260    15.6845628820
  1      1.8262170010    14.9658820270    10.0882111620
  1     19.0925262400    21.2981879990     7.4560609260
  1      7.0503994220    30.3536858020    10.0856026560
  1     13.8649666310     5.8951043000     7.4780590060
  1     -8.8956541660    27.1926443120    10.0739244640
  1     29.8018162010     9.0678569380     7.4534737470
  1     19.0982968600    21.2986501960     1.2941264680
  1      1.8185747680    14.9683856550    16.2420623640
  1     13.8828944230     5.9136460510     1.3159665800
  1      7.0526542940    30.3492371770    16.2454080050
  1     29.8111984200     9.0715251220     1.3015246050
  1     -8.8835536240    27.2002330580    16.2363538110
  1      0.5190355950    14.7535543480     7.9749273790
  1     20.3939874170    21.5057859670     9.5747947000
  1      7.8800090030    29.3328064120     7.9648089550
  1     13.0223170760     6.9182292080     9.5910288410
  1     -8.4347985360    28.4340250680     7.9604381130
  1     29.3294591350     7.8358681030     9.5700981010
  1     20.4006290970    21.5135057530    16.7412428170
  1      0.5156954160    14.7551627420     0.7923239320
  1     13.0442329310     6.9329467500    16.7651019560
  1      7.8811432750    29.3310555230     0.8027102920
  1     29.3361920750     7.8362680030    16.7524950610
  1     -8.4220234560    28.4382186760     0.7870049920
  1      3.8925227540    12.8131465540     6.1077295570
  1     17.0182336160    23.4488643540    11.4349514050
  1      7.8699548320    33.2303960900     6.1091110270
  1     13.0318338330     3.0249898200    11.4555993920
  1    -11.8023294850    26.4763405380     6.1005740020
  1     32.6968147400     9.7877919380    11.4349382110
  1     17.0180936110    23.4505504130    14.8849013940
  1      3.8931825700    12.8174302600     2.6543449340
  1     13.0341162460     3.0341900150    14.9139351270
  1      7.8658667530    33.2297618550     2.6555366990
  1     32.6995409390     9.7898004240    14.8805811660
  1    -11.7912520030    26.4802239710     2.6435110430
  1      5.2171277820    13.1286361210     8.1977639360
  1     15.6985928160    23.1338013790     9.3427819500
  1      6.9410366870    34.2136254570     8.2061775790
  1     13.9726995690     2.0384957790     9.3653441130
  1    -12.1831462620    25.1687577600     8.1913037500
  1     33.0888660390    11.0861894160     9.3427394010
  1     15.6997675390    23.1305627420    16.9795434460
  1      5.2129556800    13.1328389120     0.5634176470
  1     13.9707916890     2.0509979000    17.0043187890
  1      6.9388618210    34.2100834490     0.5580218170
  1     33.0943202900    11.0908399990    16.9716114710
  1    -12.1713843150    25.1760233460     0.5528292540
  1      3.1319283460    13.9117444290     4.3837904270
  1     17.7809709370    22.3561715460    13.1606159290
  1      7.3028769760    32.0240370050     4.3846841380
  1     13.6062103070     4.2365287710    13.1814819690
  1    -10.4669369140    26.5893661710     4.3709181130
  1     31.3669946360     9.6780244090    13.1600572310
  1     -0.5567048280    13.5122737640     6.5444103840
  1     21.4686388240    22.7536083280    10.9992174140
  1      9.4936289830    29.0293669630     6.5440667940
  1     11.4108666330     7.2232737120    11.0172170080
  1     -8.9793406280    29.9824353900     6.5383130620
  1     29.8717730340     6.2824300770    11.0012076260
  1     21.4705816470    22.7549075380    15.3183921410
  1     -0.5574881780    13.5137864000     2.2255696040
  1     11.4232056070     7.2411622190    15.3359167330
  1      9.4924980980    29.0294991500     2.2254145700
  1     29.8728851540     6.2820663320    15.3204355630
  1     -8.9601623360    29.9860364560     2.2197651100
  1     -2.4602077770    13.4732411050     2.2199721410
  1     23.3863747830    22.7921229920    15.3200630440
  1     10.4752821210    27.3990057630     2.2187146080
  1     10.4220057580     8.8703054300    15.3327993820
  1     -8.0576674740    31.6736871310     2.2245597100
  1     28.9558606790     4.6015162780    15.3216332920
  1     23.3761867410    22.7922346060    10.9931690690
  1     -2.4698714920    13.4742183800     6.5476022680
  1     10.4337781350     8.8566146390    11.0056045490
  1     10.4806713480    27.3877679310     6.5454912450
  1     28.9592474680     4.6107828100    10.9946607750
  1     -8.0468646920    31.6396114600     6.5514900190
  1     -4.9273039510    13.4590504310     2.2316980380
  1     25.8531592990    22.8046178260    15.2972862790
  1     11.7270640740    25.2730573870     2.2276694250
  1      9.1782925540    11.0023193750    15.3056195850
  1     -6.8290279290    33.8142396810     2.2557153860
  1     27.7229512610     2.4640892010    15.2991304590
  1     25.8425931900    22.8048175190    11.0033819690
  1     -4.9377900630    13.4608281540     6.5249922750
  1      9.1889926050    10.9866706560    11.0121576640
  1     11.7323883710    25.2615875290     6.5216087580
  1     27.7266621430     2.4736148790    11.0052229690
  1     -6.8226365770    33.7817569960     6.5491919930
  1     19.2166969630    17.8168945650     4.2961434150
  1      4.0989459340    28.5161833030    13.2548066590
  1     16.8169041710     7.7319169330     4.3091715420
  1     -5.8272958740    25.5514404380    13.2682305040
  1     26.7348684190    10.6989705340     4.3029938660
  1      1.7076122230    18.4451188520    13.0737805220
  1     20.7288404350    15.8672196840     4.2782272520
  1      3.1677313650    26.2311752550    13.2593374520
  1     17.7369581610    10.0217251560     4.2948586180
  1     -3.3836967710    25.8955584960    13.2899191740
  1     24.2908749460    10.3612229250     4.2865806030
  1      0.1897416360    20.3900710330    13.0476976610
  1      3.6155384300    23.0249257710    13.2695310310
  1     17.2929593730    13.2429180990     4.4921470360
  1     21.7369184860     8.3773925190     4.4761183600
  1     -0.8229524260    27.8929360130    13.0451463820
  1     23.7294033280    14.6480326250     4.4863371890
  1     -2.8132001120    21.6118305670    13.0511188580
  1      5.1085630350    21.0580817910    13.2541259130
  1     15.8073858050    15.2162862110     4.4780416880
  1     20.7833079680     6.0995824930     4.4634291750
  1      0.1410174630    30.1668186010    13.0762029010
  1     26.1796019070    14.9518607610     4.4731687630
  1     -5.2641471840    21.3015290710    13.0700587830
  1     -0.9460873080    21.8821539810    13.2302689860
  1     21.8573464680    14.3789627270     4.3910053490
  1      2.4451970860    24.5084062360    13.0955884100
  1     18.4618020410    11.7545353730     4.3838303020
  1     -1.5258872160    26.1337311960    13.1561472430
  1     22.4327349710    10.1272593620     4.3906887270
 CONVCOORD
         510           1
 30      7.0929990990    17.3448737090    13.1579706410
 30     13.8324883690    18.9173933920     4.3756648020
 30      2.3697146250    33.7314461600    13.1576410880
 30     18.5689515090     2.5262961730     4.3759985480
 30     -9.4639869610    21.4360839950    13.1568118720
 30     30.3839013580    14.8097297510     4.3747545970
 30      7.1550596820    14.5767561130    11.5875539440
 30     13.7747458340    21.6784833320     5.9695154790
 30      4.7298648940    35.1573618230    11.5873514340
 30     16.2031026210     1.0927234350     5.9758562710
 30    -11.8875358600    22.7707374650    11.5886299640
 30     32.8156695080    13.4840550030     5.9727530610
 30     13.7772228490    21.6797045440     2.8070957000
 30      7.1521564630    14.5813007280    14.7559991570
 30     16.1998618900     1.0976426650     2.8089741260
 30      4.7298711070    35.1582677110    14.7549987640