# vtk DataFile Version 1.0
Cube
ASCII

DATASET POLYDATA
POINTS 27 float
0.000000 0.000000 0.000000
0.000000 13.000000 22.516660
0.000000 20.000000 0.000000
0.000000 33.000000 22.516660
12.000000 0.000000 0.000000
12.000000 13.000000 22.516660
12.000000 20.000000 0.000000
12.000000 33.000000 22.516660
0.000000 6.500000 11.258330
0.000000 26.500000 11.258330
12.000000 6.500000 11.258330
12.000000 26.500000 11.258330
0.000000 10.000000 0.000000
0.000000 23.000000 22.516660
12.000000 10.000000 0.000000
12.000000 23.000000 22.516660
0.000000 16.500000 11.258330
12.000000 16.500000 11.258330
6.000000 0.000000 0.000000
6.000000 13.000000 22.516660
6.000000 20.000000 0.000000
6.000000 33.000000 22.516660
6.000000 6.500000 11.258330
6.000000 26.500000 11.258330
6.000000 10.000000 0.000000
6.000000 23.000000 22.516660
6.000000 16.500000 11.258330
POINT_DATA 27
SCALARS my_scalars float
LOOKUP_TABLE default
1.7
1.7
1.7
1.7
1.7
1.7
1.7
1.7
1.7
1.7
1.7
1.7
1.7
1.7
1.7
1.7
1.7
1.7
1.7
1.7
1.7
1.7
1.7
1.7
1.7
1.7
1.7
VECTORS vectors float
0.3125 0 0
0.3125 0 0
0.3125 0 0
0.3125 0 0
0.3125 0 0
0.3125 0 0
0.3125 0 0
0.3125 0 0
0.3125 0 0
0.3125 0 0
0.3125 0 0
0.3125 0 0
0.3125 0 0
0.3125 0 0
0.3125 0 0
0.3125 0 0
0.3125 0 0
0.3125 0 0
0.3125 0 0
0.3125 0 0
0.3125 0 0
0.3125 0 0
0.3125 0 0
0.3125 0 0
0.3125 0 0
0.3125 0 0
0.3125 0 0
