 DBCSR| Multiplication driver                                               BLAS
 DBCSR| Multrec recursion limit                                              512
 DBCSR| Multiplication stack size                                           1000
 DBCSR| Maximum elements for images                                    UNLIMITED
 DBCSR| Randmat seed                                                    12341313
 DBCSR| Multiplication size stacks                                             3
 DBCSR| Use MPI memory allocation                                              T
 DBCSR| Use RMA algorithm                                                      F
 DBCSR| Use Communication thread                                               T
 DBCSR| Communication thread load                                             87


  **** **** ******  **  PROGRAM STARTED AT               2016-07-16 20:08:25.579
 ***** ** ***  *** **   PROGRAM STARTED ON                              nid05137
 **    ****   ******    PROGRAM STARTED BY                                ongari
 ***** **    ** ** **   PROGRAM PROCESS ID                                  7577
  **** **  *******  **  PROGRAM STARTED IN /scratch/daint/ongari/3_CELL_OPT_1lig
                                           andmod

 CP2K| version string:                                          CP2K version 3.0
 CP2K| source code revision number:                                    svn:16458
 CP2K| cp2kflags: omp libint libxc parallel mpi2 scalapack                      
 CP2K| is freely available from                            https://www.cp2k.org/
 CP2K| Program compiled at                         Wed_Jun__8_16:37:32_CEST_2016
 CP2K| Program compiled on                                              daint101
 CP2K| Program compiled for                                 Linux-x86-64-CrayGNU
 CP2K| Data directory path    /dev/shm/jenscscs/CP2K/3.0/CrayGNU-2016.03/cp2k-3.
 CP2K| Input file name                                               ZNI_OPT.inp

 GLOBAL| Force Environment number                                              1
 GLOBAL| Basis set file name            /users/ongari/0_LIBRARIES/CP2K_basis/GTH
 GLOBAL| MM Potential file name                                     MM_POTENTIAL
 GLOBAL| Coordinate file name                                        opt_mod.pdb
 GLOBAL| Method name                                                        CP2K
 GLOBAL| Project name                                                    ZNI_OPT
 GLOBAL| Preferred FFT library                                             FFTW3
 GLOBAL| Preferred diagonalization lib.                                       SL
 GLOBAL| Run type                                                       CELL_OPT
 GLOBAL| All-to-all communication in single precision                          F
 GLOBAL| FFTs using library dependent lengths                                  F
 GLOBAL| Global print level                                                  LOW
 GLOBAL| Total number of message passing processes                            48
 GLOBAL| Number of threads for this process                                    1
 GLOBAL| This output is from process                                           0
 GLOBAL| CPU model name :  Intel(R) Xeon(R) CPU E5-2670 0 @ 2.60GHz

 MEMORY| system memory details [Kb]
 MEMORY|                        rank 0           min           max       average
 MEMORY| MemTotal             32993596      32993596      32993596      32993596
 MEMORY| MemFree              30414752      30414752      30441600      30432337
 MEMORY| Buffers                     0             0             0             0
 MEMORY| Cached                 223900        207496        223900        213343
 MEMORY| Slab                   159208        157728        159208        158409
 MEMORY| SReclaimable             7496          7208          7496          7313
 MEMORY| MemLikelyFree        30646148      30645604      30657040      30652994

 WARNING : FFT library FFTW3 is not available  Trying FFTSG as a default

 GENERATE|  Preliminary Number of Bonds generated:                           318

 GENERATE| WARNING in connectivity generation!
 GENERATE| Two molecules/residues named (MOL1) have different  number of atoms.
 GENERATE| Molecule starting at position (61) has Nr. <7> of atoms.
 GENERATE| while the other same molecules have Nr. <263> of atoms!
 GENERATE| Increasing bondparm_factor by 1.05.. An error was found in the generated
 GENERATE| connectivity. Retry...
 GENERATE| Present value of BONDPARM_FACTOR (   1.155000 ).


 GENERATE|  Preliminary Number of Bonds generated:                           319
 GENERATE|  Achieved consistency in connectivity generation.
 GENERATE|  Number of Bonds generated:                                       319
 GENERATE|  Preliminary Number of Bends generated:                           571
 GENERATE|  Number of Bends generated:                                       571
 GENERATE|  Number of UB generated:                                          571
 GENERATE|  Preliminary Number of Torsions generated:                       1008
 GENERATE|  Number of Torsions generated:                                   1008
 GENERATE|  Number of Impropers generated:                                   160
 GENERATE|  Number of 1-4 interactions generated:                            848

 *******************************************************************************
 *******************************************************************************
 **                                                                           **
 **     #####                         ##              ##                      **
 **    ##   ##            ##          ##              ##                      **
 **   ##     ##                       ##            ######                    **
 **   ##     ##  ##   ##  ##   #####  ##  ##   ####   ##    #####    #####    **
 **   ##     ##  ##   ##  ##  ##      ## ##   ##      ##   ##   ##  ##   ##   **
 **   ##  ## ##  ##   ##  ##  ##      ####     ###    ##   ######   ######    **
 **    ##  ###   ##   ##  ##  ##      ## ##      ##   ##   ##       ##        **
 **     #######   #####   ##   #####  ##  ##  ####    ##    #####   ##        **
 **           ##                                                    ##        **
 **                                                                           **
 **                                                ... make the atoms dance   **
 **                                                                           **
 **            Copyright (C) by CP2K Developers Group (2000 - 2015)           **
 **                                                                           **
 *******************************************************************************


 SCF PARAMETERS         Density guess:                                    ATOMIC
                        --------------------------------------------------------
                        max_scf:                                              30
                        max_scf_history:                                       0
                        max_diis:                                              4
                        --------------------------------------------------------
                        eps_scf:                                        1.00E-06
                        eps_scf_history:                                0.00E+00
                        eps_diis:                                       1.00E-01
                        eps_eigval:                                     1.00E-05
                        --------------------------------------------------------
                        level_shift [a.u.]:                                 0.00
                        --------------------------------------------------------
                        Outer loop SCF in use 
                        No variables optimised in outer loop
                        eps_scf                                         1.00E-06
                        max_scf                                               10
                        No outer loop optimization
                        step_size                                       5.00E-01

 *******************************************************************************
 ***                     STARTING   CELL   OPTIMIZATION                      ***
 ***                                   BFGS                                  ***
 *******************************************************************************

 CELL| Volume [angstrom^3]:                                             3260.034
 CELL| Vector a [angstrom]:      12.401     0.000     0.000    |a| =      12.401
 CELL| Vector b [angstrom]:       6.233    16.211     0.000    |b| =      17.368
 CELL| Vector c [angstrom]:      -6.225    -0.020    16.216    |c| =      17.370
 CELL| Angle (b,c), alpha [degree]:                                       97.450
 CELL| Angle (a,c), beta  [degree]:                                      111.000
 CELL| Angle (a,b), gamma [degree]:                                       68.970
 CELL| Numerically orthorhombic:                                              NO

 Number of electrons:                                                        992
 Number of occupied orbitals:                                                496
 Number of molecular orbitals:                                               496

 Number of orbital functions:                                               2960
 Number of independent orbital functions:                                   2960

 Extrapolation method: initial_guess


 SCF WAVEFUNCTION OPTIMIZATION

  ----------------------------------- OT ---------------------------------------
  Minimizer      : DIIS                : direct inversion
                                         in the iterative subspace
                                         using   7 DIIS vectors
                                         safer DIIS on
  Preconditioner : FULL_SINGLE_INVERSE : inversion of 
                                         H + eS - 2*(Sc)(c^T*H*c+const)(Sc)^T
  Precond_solver : DEFAULT
  stepsize       :    0.08000000                  energy_gap     :    0.08000000
  eps_taylor     :   0.10000E-15                  max_taylor     :             4
  ----------------------------------- OT ---------------------------------------

  Step     Update method      Time    Convergence         Total energy    Change
  ------------------------------------------------------------------------------
     1 OT DIIS     0.80E-01    4.8     0.02125462     -2122.3293254877 -2.12E+03
     2 OT DIIS     0.80E-01    6.1     0.01355943     -2157.3564097059 -3.50E+01
     3 OT DIIS     0.80E-01    6.1     0.01086096     -2175.8482308617 -1.85E+01
     4 OT DIIS     0.80E-01    6.1     0.00820364     -2191.4274452601 -1.56E+01
     5 OT DIIS     0.80E-01    6.1     0.00485156     -2199.8140642277 -8.39E+00
     6 OT DIIS     0.80E-01    6.1     0.00359922     -2202.6818584766 -2.87E+00
     7 OT DIIS     0.80E-01    6.1     0.00237232     -2205.3157105487 -2.63E+00
     8 OT DIIS     0.80E-01    6.1     0.00183439     -2206.4603146392 -1.14E+00
     9 OT DIIS     0.80E-01    6.1     0.00136316     -2207.3458906575 -8.86E-01
    10 OT DIIS     0.80E-01    6.1     0.00113360     -2207.7958073941 -4.50E-01
    11 OT DIIS     0.80E-01    6.1     0.00091055     -2208.1588364662 -3.63E-01
    12 OT DIIS     0.80E-01    6.1     0.00075398     -2208.3946575163 -2.36E-01
    13 OT DIIS     0.80E-01    6.1     0.00059512     -2208.6148825203 -2.20E-01
    14 OT DIIS     0.80E-01    6.1     0.00045194     -2208.7211090710 -1.06E-01
    15 OT DIIS     0.80E-01    6.1     0.00042488     -2208.7850781769 -6.40E-02
    16 OT DIIS     0.80E-01    6.1     0.00029777     -2208.8501739754 -6.51E-02
    17 OT DIIS     0.80E-01    6.1     0.00021665     -2208.8783952195 -2.82E-02
    18 OT DIIS     0.80E-01    6.1     0.00017393     -2208.8996284722 -2.12E-02
    19 OT DIIS     0.80E-01    6.1     0.00013572     -2208.9177171970 -1.81E-02
    20 OT DIIS     0.80E-01    6.1     0.00010097     -2208.9268100544 -9.09E-03
    21 OT DIIS     0.80E-01    6.1     0.00008232     -2208.9331246934 -6.31E-03
    22 OT DIIS     0.80E-01    6.1     0.00006791     -2208.9372000883 -4.08E-03
    23 OT DIIS     0.80E-01    6.1     0.00005807     -2208.9400053690 -2.81E-03
    24 OT DIIS     0.80E-01    6.1     0.00004929     -2208.9421500612 -2.14E-03
    25 OT DIIS     0.80E-01    6.1     0.00004217     -2208.9440550923 -1.91E-03
    26 OT DIIS     0.80E-01    6.1     0.00003744     -2208.9453757106 -1.32E-03
    27 OT DIIS     0.80E-01    6.1     0.00003313     -2208.9465178627 -1.14E-03
    28 OT DIIS     0.80E-01    6.1     0.00003000     -2208.9474491215 -9.31E-04
    29 OT DIIS     0.80E-01    6.1     0.00002725     -2208.9482755701 -8.26E-04
    30 OT DIIS     0.80E-01    6.1     0.00002520     -2208.9489299530 -6.54E-04

  Leaving inner SCF loop after reaching    30 steps.


  Electronic density on regular grids:       -991.9999995553        0.0000004447
  Core density on regular grids:              991.9999999321       -0.0000000679
  Total charge density on r-space grids:        0.0000003767
  Total charge density g-space grids:           0.0000003767

  Overlap energy of the core charge distribution:               0.00005266782635
  Self energy of the core charge distribution:              -4280.41057313132478
  Core Hamiltonian energy:                                   1327.01088736151223
  Hartree energy:                                            1253.98505046034688
  Exchange-correlation energy:                               -508.95623483692299
  Dispersion energy:                                           -0.57811247444148

  Total energy:                                             -2208.94892995300461

  outer SCF iter =    1 RMS gradient =   0.25E-04 energy =      -2208.9489299530

  ----------------------------------- OT ---------------------------------------
  Minimizer      : DIIS                : direct inversion
                                         in the iterative subspace
                                         using   7 DIIS vectors
                                         safer DIIS on
  Preconditioner : FULL_SINGLE_INVERSE : inversion of 
                                         H + eS - 2*(Sc)(c^T*H*c+const)(Sc)^T
  Precond_solver : DEFAULT
  stepsize       :    0.08000000                  energy_gap     :    0.08000000
  eps_taylor     :   0.10000E-15                  max_taylor     :             4
  ----------------------------------- OT ---------------------------------------

  Step     Update method      Time    Convergence         Total energy    Change
  ------------------------------------------------------------------------------
     1 OT DIIS     0.80E-01   13.0     0.00017299     -2208.9494748910 -5.45E-04
     2 OT DIIS     0.80E-01    6.0     0.00009967     -2208.9521598624 -2.68E-03
     3 OT DIIS     0.80E-01    6.0     0.00006355     -2208.9535039410 -1.34E-03
     4 OT DIIS     0.80E-01    6.0     0.00005461     -2208.9537839591 -2.80E-04
     5 OT DIIS     0.80E-01    6.0     0.00004230     -2208.9540117485 -2.28E-04
     6 OT DIIS     0.80E-01    6.0     0.00003934     -2208.9542218910 -2.10E-04
     7 OT DIIS     0.80E-01    6.0     0.00003658     -2208.9544134669 -1.92E-04
     8 OT DIIS     0.80E-01    6.0     0.00003479     -2208.9546981243 -2.85E-04
     9 OT DIIS     0.80E-01    6.0     0.00003363     -2208.9549839937 -2.86E-04
    10 OT DIIS     0.80E-01    6.0     0.00002773     -2208.9554408622 -4.57E-04
    11 OT DIIS     0.80E-01    6.0     0.00002286     -2208.9555163198 -7.55E-05
    12 OT DIIS     0.80E-01    6.0     0.00001724     -2208.9557110129 -1.95E-04
    13 OT DIIS     0.80E-01    6.0     0.00002351     -2208.9556681522  4.29E-05
    14 OT DIIS     0.80E-01    6.0     0.00000958     -2208.9557333026 -6.52E-05
    15 OT DIIS     0.80E-01    6.0     0.00000987     -2208.9557418747 -8.57E-06
    16 OT DIIS     0.80E-01    6.0     0.00000437     -2208.9557510448 -9.17E-06
    17 OT DIIS     0.80E-01    6.0     0.00000306     -2208.9557520121 -9.67E-07
    18 OT DIIS     0.80E-01    6.0     0.00000234     -2208.9557522792 -2.67E-07
    19 OT DIIS     0.80E-01    6.0     0.00000146     -2208.9557524475 -1.68E-07
    20 OT DIIS     0.80E-01    6.0     0.00000069     -2208.9557526097 -1.62E-07

  *** SCF run converged in    20 steps ***


  Electronic density on regular grids:       -992.0000009577       -0.0000009577
  Core density on regular grids:              991.9999999321       -0.0000000679
  Total charge density on r-space grids:       -0.0000010256
  Total charge density g-space grids:          -0.0000010256

  Overlap energy of the core charge distribution:               0.00005266782635
  Self energy of the core charge distribution:              -4280.41057313132478
  Core Hamiltonian energy:                                   1326.98501297026178
  Hartree energy:                                            1253.99306096248370
  Exchange-correlation energy:                               -508.94519360450897
  Dispersion energy:                                           -0.57811247444148

  Total energy:                                             -2208.95575260970418

  outer SCF iter =    2 RMS gradient =   0.69E-06 energy =      -2208.9557526097
  outer SCF loop converged in   2 iterations or   50 steps


 ENERGY| Total FORCE_EVAL ( QS ) energy (a.u.):            -2208.955752650724662


 --------  Informations at step =     0 ------------
  Optimization Method        =                 BFGS
  Total Energy               =     -2208.9557526507
  Internal Pressure [bar]    =      8014.2302223649
  Used time                  =              329.203
 ---------------------------------------------------

 --------------------------
 OPTIMIZATION STEP:      1
 --------------------------

  Step is scaled; Scaling factor =  0.81304

 CELL| Volume [angstrom^3]:                                             3230.223
 CELL| Vector a [angstrom]:      12.199     0.000     0.000    |a| =      12.199
 CELL| Vector b [angstrom]:       6.232    16.285     0.000    |b| =      17.436
 CELL| Vector c [angstrom]:      -6.282     0.023    16.260    |c| =      17.432
 CELL| Angle (b,c), alpha [degree]:                                       97.328
 CELL| Angle (a,c), beta  [degree]:                                      111.123
 CELL| Angle (a,b), gamma [degree]:                                       69.058
 CELL| Numerically orthorhombic:                                              NO

 Number of electrons:                                                        992
 Number of occupied orbitals:                                                496
 Number of molecular orbitals:                                               496

 Number of orbital functions:                                               2960
 Number of independent orbital functions:                                   2960

 Extrapolation method: ASPC


 SCF WAVEFUNCTION OPTIMIZATION

  ----------------------------------- OT ---------------------------------------
  Minimizer      : DIIS                : direct inversion
                                         in the iterative subspace
                                         using   7 DIIS vectors
                                         safer DIIS on
  Preconditioner : FULL_SINGLE_INVERSE : inversion of 
                                         H + eS - 2*(Sc)(c^T*H*c+const)(Sc)^T
  Precond_solver : DEFAULT
  stepsize       :    0.08000000                  energy_gap     :    0.08000000
  eps_taylor     :   0.10000E-15                  max_taylor     :             4
  ----------------------------------- OT ---------------------------------------

  Step     Update method      Time    Convergence         Total energy    Change
  ------------------------------------------------------------------------------
     1 OT DIIS     0.80E-01    4.3     0.00102433     -2208.9557373561 -2.21E+03
     2 OT DIIS     0.80E-01    6.0     0.00055597     -2209.0416003344 -8.59E-02
     3 OT DIIS     0.80E-01    6.0     0.00037832     -2209.0698955039 -2.83E-02
     4 OT DIIS     0.80E-01    6.1     0.00023213     -2209.0806493755 -1.08E-02
     5 OT DIIS     0.80E-01    6.1     0.00011652     -2209.0832599607 -2.61E-03
     6 OT DIIS     0.80E-01    6.1     0.00006109     -2209.0841242802 -8.64E-04
     7 OT DIIS     0.80E-01    6.1     0.00003210     -2209.0843426101 -2.18E-04
     8 OT DIIS     0.80E-01    6.1     0.00001844     -2209.0843993896 -5.68E-05
     9 OT DIIS     0.80E-01    6.1     0.00001029     -2209.0844214193 -2.20E-05
    10 OT DIIS     0.80E-01    6.1     0.00000716     -2209.0844309905 -9.57E-06
    11 OT DIIS     0.80E-01    6.1     0.00000455     -2209.0844359420 -4.95E-06
    12 OT DIIS     0.80E-01    6.1     0.00000305     -2209.0844380898 -2.15E-06
    13 OT DIIS     0.80E-01    6.1     0.00000215     -2209.0844391951 -1.11E-06
    14 OT DIIS     0.80E-01    6.1     0.00000168     -2209.0844397228 -5.28E-07
    15 OT DIIS     0.80E-01    6.1     0.00000113     -2209.0844399983 -2.76E-07
    16 OT DIIS     0.80E-01    6.1     0.00000073     -2209.0844401154 -1.17E-07

  *** SCF run converged in    16 steps ***


  Electronic density on regular grids:       -991.9999995583        0.0000004417
  Core density on regular grids:              991.9999999320       -0.0000000680
  Total charge density on r-space grids:        0.0000003737
  Total charge density g-space grids:           0.0000003737

  Overlap energy of the core charge distribution:               0.00006030646004
  Self energy of the core charge distribution:              -4280.41057313132478
  Core Hamiltonian energy:                                   1329.53106370501632
  Hartree energy:                                            1252.07700258184809
  Exchange-correlation energy:                               -509.70075792187197
  Dispersion energy:                                           -0.58123565549973

  Total energy:                                             -2209.08444011537222

  outer SCF iter =    1 RMS gradient =   0.73E-06 energy =      -2209.0844401154
  outer SCF loop converged in   1 iterations or   16 steps


 ENERGY| Total FORCE_EVAL ( QS ) energy (a.u.):            -2209.084440165007436


 --------  Informations at step =     1 ------------
  Optimization Method        =                 BFGS
  Total Energy               =     -2209.0844401650
  Internal Pressure [bar]    =     22716.9902550088
  Real energy change         =        -0.1286875143
  Predicted change in energy =        -0.1992969148
  Scaling factor             =         0.8130415016
  Step size                  =         0.4724315332
  Trust radius               =         0.4724315332
  Decrease in energy         =                  YES
  Used time                  =              124.071

  Convergence check :
  Max. step size             =         0.4724315332
  Conv. limit for step size  =         0.0018897261
  Convergence in step size   =                   NO
  RMS step size              =         0.0509538220
  Conv. limit for RMS step   =         0.0009448631
  Convergence in RMS step    =                   NO
  Max. gradient              =         0.1610327286
  Conv. limit for gradients  =         0.0004500000
  Conv. for gradients        =                   NO
  RMS gradient               =         0.0108966860
  Conv. limit for RMS grad.  =         0.0003000000
  Conv. for gradients        =                   NO
  Pressure Deviation [bar]   =     14216.9902550088
  Pressure Tolerance [bar]   =      1000.0000000000
  Conv. for  PRESSURE        =                   NO
 ---------------------------------------------------

 --------------------------
 OPTIMIZATION STEP:      2
 --------------------------

  Step is scaled; Scaling factor =  0.51844

 CELL| Volume [angstrom^3]:                                             3311.097
 CELL| Vector a [angstrom]:      12.449     0.000     0.000    |a| =      12.449
 CELL| Vector b [angstrom]:       6.166    16.313     0.000    |b| =      17.439
 CELL| Vector c [angstrom]:      -6.258     0.040    16.305    |c| =      17.464
 CELL| Angle (b,c), alpha [degree]:                                       97.156
 CELL| Angle (a,c), beta  [degree]:                                      110.997
 CELL| Angle (a,b), gamma [degree]:                                       69.293
 CELL| Numerically orthorhombic:                                              NO

 Number of electrons:                                                        992
 Number of occupied orbitals:                                                496
 Number of molecular orbitals:                                               496

 Number of orbital functions:                                               2960
 Number of independent orbital functions:                                   2960

 Extrapolation method: ASPC


 SCF WAVEFUNCTION OPTIMIZATION

  ----------------------------------- OT ---------------------------------------
  Minimizer      : DIIS                : direct inversion
                                         in the iterative subspace
                                         using   7 DIIS vectors
                                         safer DIIS on
  Preconditioner : FULL_SINGLE_INVERSE : inversion of 
                                         H + eS - 2*(Sc)(c^T*H*c+const)(Sc)^T
  Precond_solver : DEFAULT
  stepsize       :    0.08000000                  energy_gap     :    0.08000000
  eps_taylor     :   0.10000E-15                  max_taylor     :             4
  ----------------------------------- OT ---------------------------------------

  Step     Update method      Time    Convergence         Total energy    Change
  ------------------------------------------------------------------------------
     1 OT DIIS     0.80E-01    4.4     0.00112696     -2209.0109488054 -2.21E+03
     2 OT DIIS     0.80E-01    6.1     0.00060284     -2209.1143017018 -1.03E-01
     3 OT DIIS     0.80E-01    6.1     0.00038182     -2209.1476644970 -3.34E-02
     4 OT DIIS     0.80E-01    6.1     0.00016183     -2209.1606688196 -1.30E-02
     5 OT DIIS     0.80E-01    6.1     0.00008236     -2209.1628952925 -2.23E-03
     6 OT DIIS     0.80E-01    6.1     0.00004352     -2209.1634125462 -5.17E-04
     7 OT DIIS     0.80E-01    6.1     0.00001861     -2209.1635427441 -1.30E-04
     8 OT DIIS     0.80E-01    6.1     0.00000993     -2209.1635692646 -2.65E-05
     9 OT DIIS     0.80E-01    6.1     0.00000581     -2209.1635762699 -7.01E-06
    10 OT DIIS     0.80E-01    6.1     0.00000340     -2209.1635788008 -2.53E-06
    11 OT DIIS     0.80E-01    6.1     0.00000171     -2209.1635796755 -8.75E-07
    12 OT DIIS     0.80E-01    6.1     0.00000111     -2209.1635799616 -2.86E-07
    13 OT DIIS     0.80E-01   10.0     0.00000073     -2209.1635800777 -1.16E-07

  *** SCF run converged in    13 steps ***


  Electronic density on regular grids:       -991.9999995568        0.0000004432
  Core density on regular grids:              991.9999999320       -0.0000000680
  Total charge density on r-space grids:        0.0000003752
  Total charge density g-space grids:           0.0000003752

  Overlap energy of the core charge distribution:               0.00004366476600
  Self energy of the core charge distribution:              -4280.41057313132478
  Core Hamiltonian energy:                                   1323.14749448573457
  Hartree energy:                                            1256.59376766393143
  Exchange-correlation energy:                               -507.92200828183923
  Dispersion energy:                                           -0.57230447898287

  Total energy:                                             -2209.16358007771487

  outer SCF iter =    1 RMS gradient =   0.73E-06 energy =      -2209.1635800777
  outer SCF loop converged in   1 iterations or   13 steps


 ENERGY| Total FORCE_EVAL ( QS ) energy (a.u.):            -2209.163580138226280


 --------  Informations at step =     2 ------------
  Optimization Method        =                 BFGS
  Total Energy               =     -2209.1635801382
  Internal Pressure [bar]    =    -14668.0915781107
  Real energy change         =        -0.0791399732
  Predicted change in energy =        -0.1396485568
  Scaling factor             =         0.5184351075
  Step size                  =         0.4724315332
  Trust radius               =         0.4724315332
  Decrease in energy         =                  YES
  Used time                  =              109.649

  Convergence check :
  Max. step size             =         0.4724315332
  Conv. limit for step size  =         0.0018897261
  Convergence in step size   =                   NO
  RMS step size              =         0.0343664788
  Conv. limit for RMS step   =         0.0009448631
  Convergence in RMS step    =                   NO
  Max. gradient              =         0.1255383452
  Conv. limit for gradients  =         0.0004500000
  Conv. for gradients        =                   NO
  RMS gradient               =         0.0086896158
  Conv. limit for RMS grad.  =         0.0003000000
  Conv. for gradients        =                   NO
  Pressure Deviation [bar]   =    -23168.0915781107
  Pressure Tolerance [bar]   =      1000.0000000000
  Conv. for  PRESSURE        =                   NO
 ---------------------------------------------------

 --------------------------
 OPTIMIZATION STEP:      3
 --------------------------

  Step is scaled; Scaling factor =  0.91372

 CELL| Volume [angstrom^3]:                                             3224.217
 CELL| Vector a [angstrom]:      12.309     0.000     0.000    |a| =      12.309
 CELL| Vector b [angstrom]:       6.142    16.160     0.000    |b| =      17.288
 CELL| Vector c [angstrom]:      -6.250     0.036    16.209    |c| =      17.372
 CELL| Angle (b,c), alpha [degree]:                                       97.232
 CELL| Angle (a,c), beta  [degree]:                                      111.087
 CELL| Angle (a,b), gamma [degree]:                                       69.189
 CELL| Numerically orthorhombic:                                              NO

 Number of electrons:                                                        992
 Number of occupied orbitals:                                                496
 Number of molecular orbitals:                                               496

 Number of orbital functions:                                               2960
 Number of independent orbital functions:                                   2960

 Extrapolation method: ASPC


 SCF WAVEFUNCTION OPTIMIZATION

  ----------------------------------- OT ---------------------------------------
  Minimizer      : DIIS                : direct inversion
                                         in the iterative subspace
                                         using   7 DIIS vectors
                                         safer DIIS on
  Preconditioner : FULL_SINGLE_INVERSE : inversion of 
                                         H + eS - 2*(Sc)(c^T*H*c+const)(Sc)^T
  Precond_solver : DEFAULT
  stepsize       :    0.08000000                  energy_gap     :    0.08000000
  eps_taylor     :   0.10000E-15                  max_taylor     :             4
  ----------------------------------- OT ---------------------------------------

  Step     Update method      Time    Convergence         Total energy    Change
  ------------------------------------------------------------------------------
     1 OT DIIS     0.80E-01    4.4     0.00142307     -2208.9294989470 -2.21E+03
     2 OT DIIS     0.80E-01    6.1     0.00070659     -2209.0899493538 -1.60E-01
     3 OT DIIS     0.80E-01    6.1     0.00040356     -2209.1372251729 -4.73E-02
     4 OT DIIS     0.80E-01    6.1     0.00019544     -2209.1534798461 -1.63E-02
     5 OT DIIS     0.80E-01    6.1     0.00010035     -2209.1563331867 -2.85E-03
     6 OT DIIS     0.80E-01    6.1     0.00005324     -2209.1570590974 -7.26E-04
     7 OT DIIS     0.80E-01    6.1     0.00002082     -2209.1572442945 -1.85E-04
     8 OT DIIS     0.80E-01    6.1     0.00001184     -2209.1572785234 -3.42E-05
     9 OT DIIS     0.80E-01    6.1     0.00000624     -2209.1572870837 -8.56E-06
    10 OT DIIS     0.80E-01    6.1     0.00000320     -2209.1572904504 -3.37E-06
    11 OT DIIS     0.80E-01    6.1     0.00000170     -2209.1572913071 -8.57E-07
    12 OT DIIS     0.80E-01    6.1     0.00000102     -2209.1572916135 -3.06E-07
    13 OT DIIS     0.80E-01    6.1     0.00000069     -2209.1572917258 -1.12E-07

  *** SCF run converged in    13 steps ***


  Electronic density on regular grids:       -991.9999995582        0.0000004418
  Core density on regular grids:              991.9999999320       -0.0000000680
  Total charge density on r-space grids:        0.0000003737
  Total charge density g-space grids:           0.0000003737

  Overlap energy of the core charge distribution:               0.00006298155210
  Self energy of the core charge distribution:              -4280.41057313132478
  Core Hamiltonian energy:                                   1330.40837785976032
  Hartree energy:                                            1251.36169075634120
  Exchange-correlation energy:                               -509.93357203716215
  Dispersion energy:                                           -0.58327815495847

  Total energy:                                             -2209.15729172579131

  outer SCF iter =    1 RMS gradient =   0.69E-06 energy =      -2209.1572917258
  outer SCF loop converged in   1 iterations or   13 steps


 ENERGY| Total FORCE_EVAL ( QS ) energy (a.u.):            -2209.157291775993599


 --------  Informations at step =     3 ------------
  Optimization Method        =                 BFGS
  Total Energy               =     -2209.1572917760
  Internal Pressure [bar]    =     26767.4334806455
  Real energy change         =         0.0062883622
  Predicted change in energy =        -0.1131949821
  Scaling factor             =         0.9137173669
  Step size                  =         0.4724315332
  Trust radius               =         0.4724315332
  Decrease in energy         =                   NO
  Used time                  =              106.686

  Convergence check :
  Max. step size             =         0.4724315332
  Conv. limit for step size  =         0.0018897261
  Convergence in step size   =                   NO
  RMS step size              =         0.0437986962
  Conv. limit for RMS step   =         0.0009448631
  Convergence in RMS step    =                   NO
  Max. gradient              =         0.1532530257
  Conv. limit for gradients  =         0.0004500000
  Conv. for gradients        =                   NO
  RMS gradient               =         0.0102284637
  Conv. limit for RMS grad.  =         0.0003000000
  Conv. for gradients        =                   NO
  Pressure Deviation [bar]   =     18267.4334806455
  Pressure Tolerance [bar]   =      1000.0000000000
  Conv. for  PRESSURE        =                   NO
 ---------------------------------------------------

 --------------------------
 OPTIMIZATION STEP:      4
 --------------------------

 CELL| Volume [angstrom^3]:                                             3269.776
 CELL| Vector a [angstrom]:      12.346     0.000     0.000    |a| =      12.346
 CELL| Vector b [angstrom]:       6.180    16.287     0.000    |b| =      17.420
 CELL| Vector c [angstrom]:      -6.258     0.016    16.262    |c| =      17.424
 CELL| Angle (b,c), alpha [degree]:                                       97.270
 CELL| Angle (a,c), beta  [degree]:                                      111.048
 CELL| Angle (a,b), gamma [degree]:                                       69.220
 CELL| Numerically orthorhombic:                                              NO

 Number of electrons:                                                        992
 Number of occupied orbitals:                                                496
 Number of molecular orbitals:                                               496

 Number of orbital functions:                                               2960
 Number of independent orbital functions:                                   2960

 Extrapolation method: ASPC


 SCF WAVEFUNCTION OPTIMIZATION

  ----------------------------------- OT ---------------------------------------
  Minimizer      : DIIS                : direct inversion
                                         in the iterative subspace
                                         using   7 DIIS vectors
                                         safer DIIS on
  Preconditioner : FULL_SINGLE_INVERSE : inversion of 
                                         H + eS - 2*(Sc)(c^T*H*c+const)(Sc)^T
  Precond_solver : DEFAULT
  stepsize       :    0.08000000                  energy_gap     :    0.08000000
  eps_taylor     :   0.10000E-15                  max_taylor     :             4
  ----------------------------------- OT ---------------------------------------

  Step     Update method      Time    Convergence         Total energy    Change
  ------------------------------------------------------------------------------
     1 OT DIIS     0.80E-01    4.4     0.00219013     -2208.6524695477 -2.21E+03
     2 OT DIIS     0.80E-01    6.3     0.00114732     -2209.0473294077 -3.95E-01
     3 OT DIIS     0.80E-01    6.3     0.00064409     -2209.1795710542 -1.32E-01
     4 OT DIIS     0.80E-01    6.3     0.00032230     -2209.2211475121 -4.16E-02
     5 OT DIIS     0.80E-01    6.3     0.00019044     -2209.2274972614 -6.35E-03
     6 OT DIIS     0.80E-01    6.3     0.00008197     -2209.2296988762 -2.20E-03
     7 OT DIIS     0.80E-01    6.3     0.00003340     -2209.2302092371 -5.10E-04
     8 OT DIIS     0.80E-01    6.3     0.00001780     -2209.2302999323 -9.07E-05
     9 OT DIIS     0.80E-01    6.3     0.00000912     -2209.2303203482 -2.04E-05
    10 OT DIIS     0.80E-01    6.3     0.00000447     -2209.2303269927 -6.64E-06
    11 OT DIIS     0.80E-01    6.3     0.00000225     -2209.2303283799 -1.39E-06
    12 OT DIIS     0.80E-01    6.3     0.00000135     -2209.2303287577 -3.78E-07
    13 OT DIIS     0.80E-01    6.3     0.00000081     -2209.2303288746 -1.17E-07

  *** SCF run converged in    13 steps ***


  Electronic density on regular grids:       -991.9999995568        0.0000004432
  Core density on regular grids:              991.9999999320       -0.0000000680
  Total charge density on r-space grids:        0.0000003752
  Total charge density g-space grids:           0.0000003752

  Overlap energy of the core charge distribution:               0.00005187017964
  Self energy of the core charge distribution:              -4280.41057313132478
  Core Hamiltonian energy:                                   1326.70881503166038
  Hartree energy:                                            1253.97841267496756
  Exchange-correlation energy:                               -508.92935131513798
  Dispersion energy:                                           -0.57768400496592

  Total energy:                                             -2209.23032887462068

  outer SCF iter =    1 RMS gradient =   0.81E-06 energy =      -2209.2303288746
  outer SCF loop converged in   1 iterations or   13 steps


 ENERGY| Total FORCE_EVAL ( QS ) energy (a.u.):            -2209.230328927785195


 --------  Informations at step =     4 ------------
  Optimization Method        =                 BFGS
  Total Energy               =     -2209.2303289278
  Internal Pressure [bar]    =      4980.0547200975
  Real energy change         =        -0.0730371518
  Predicted change in energy =        -0.0740325338
  Scaling factor             =         0.9137173669
  Step size                  =         0.2397296601
  Trust radius               =         0.4724315332
  Decrease in energy         =                  YES
  Used time                  =              108.796

  Convergence check :
  Max. step size             =         0.2397296601
  Conv. limit for step size  =         0.0018897261
  Convergence in step size   =                   NO
  RMS step size              =         0.0225842742
  Conv. limit for RMS step   =         0.0009448631
  Convergence in RMS step    =                   NO
  Max. gradient              =         0.0196472514
  Conv. limit for gradients  =         0.0004500000
  Conv. for gradients        =                   NO
  RMS gradient               =         0.0027949192
  Conv. limit for RMS grad.  =         0.0003000000
  Conv. for gradients        =                   NO
  Pressure Deviation [bar]   =     -3519.9452799025
  Pressure Tolerance [bar]   =      1000.0000000000
  Conv. for  PRESSURE        =                   NO
 ---------------------------------------------------

 --------------------------
 OPTIMIZATION STEP:      5
 --------------------------

 CELL| Volume [angstrom^3]:                                             3254.128
 CELL| Vector a [angstrom]:      12.357     0.000     0.000    |a| =      12.357
 CELL| Vector b [angstrom]:       6.160    16.229     0.000    |b| =      17.359
 CELL| Vector c [angstrom]:      -6.264     0.013    16.227    |c| =      17.394
 CELL| Angle (b,c), alpha [degree]:                                       97.302
 CELL| Angle (a,c), beta  [degree]:                                      111.109
 CELL| Angle (a,b), gamma [degree]:                                       69.214
 CELL| Numerically orthorhombic:                                              NO

 Number of electrons:                                                        992
 Number of occupied orbitals:                                                496
 Number of molecular orbitals:                                               496

 Number of orbital functions:                                               2960
 Number of independent orbital functions:                                   2960

 Extrapolation method: ASPC


 SCF WAVEFUNCTION OPTIMIZATION

  ----------------------------------- OT ---------------------------------------
  Minimizer      : DIIS                : direct inversion
                                         in the iterative subspace
                                         using   7 DIIS vectors
                                         safer DIIS on
  Preconditioner : FULL_SINGLE_INVERSE : inversion of 
                                         H + eS - 2*(Sc)(c^T*H*c+const)(Sc)^T
  Precond_solver : DEFAULT
  stepsize       :    0.08000000                  energy_gap     :    0.08000000
  eps_taylor     :   0.10000E-15                  max_taylor     :             4
  ----------------------------------- OT ---------------------------------------

  Step     Update method      Time    Convergence         Total energy    Change
  ------------------------------------------------------------------------------
     1 OT DIIS     0.80E-01    4.5     0.00228520     -2208.6183294533 -2.21E+03
     2 OT DIIS     0.80E-01    6.2     0.00121111     -2209.0359620116 -4.18E-01
     3 OT DIIS     0.80E-01    6.2     0.00070742     -2209.1709159751 -1.35E-01
     4 OT DIIS     0.80E-01    6.2     0.00026067     -2209.2250305031 -5.41E-02
     5 OT DIIS     0.80E-01    6.2     0.00012060     -2209.2319795555 -6.95E-03
     6 OT DIIS     0.80E-01    6.2     0.00005066     -2209.2335949303 -1.62E-03
     7 OT DIIS     0.80E-01    6.2     0.00002100     -2209.2338749380 -2.80E-04
     8 OT DIIS     0.80E-01    6.2     0.00000976     -2209.2339284075 -5.35E-05
     9 OT DIIS     0.80E-01    6.2     0.00000557     -2209.2339386365 -1.02E-05
    10 OT DIIS     0.80E-01    6.2     0.00000281     -2209.2339418075 -3.17E-06
    11 OT DIIS     0.80E-01    6.2     0.00000162     -2209.2339429272 -1.12E-06
    12 OT DIIS     0.80E-01    6.2     0.00000100     -2209.2339432976 -3.70E-07
    13 OT DIIS     0.80E-01    6.2     0.00000061     -2209.2339434515 -1.54E-07

  *** SCF run converged in    13 steps ***


  Electronic density on regular grids:       -991.9999995572        0.0000004428
  Core density on regular grids:              991.9999999321       -0.0000000679
  Total charge density on r-space grids:        0.0000003748
  Total charge density g-space grids:           0.0000003748

  Overlap energy of the core charge distribution:               0.00005480500643
  Self energy of the core charge distribution:              -4280.41057313132478
  Core Hamiltonian energy:                                   1327.87925424090281
  Hartree energy:                                            1253.13627940424499
  Exchange-correlation energy:                               -509.25997427722530
  Dispersion energy:                                           -0.57898449314621

  Total energy:                                             -2209.23394345154156

  outer SCF iter =    1 RMS gradient =   0.61E-06 energy =      -2209.2339434515
  outer SCF loop converged in   1 iterations or   13 steps


 ENERGY| Total FORCE_EVAL ( QS ) energy (a.u.):            -2209.233943506753349


 --------  Informations at step =     5 ------------
  Optimization Method        =                 BFGS
  Total Energy               =     -2209.2339435068
  Internal Pressure [bar]    =     11851.9026893640
  Real energy change         =        -0.0036145790
  Predicted change in energy =        -0.0133820978
  Scaling factor             =         0.9137173669
  Step size                  =         0.1218900815
  Trust radius               =         0.4724315332
  Decrease in energy         =                  YES
  Used time                  =              108.115

  Convergence check :
  Max. step size             =         0.1218900815
  Conv. limit for step size  =         0.0018897261
  Convergence in step size   =                   NO
  RMS step size              =         0.0166778705
  Conv. limit for RMS step   =         0.0009448631
  Convergence in RMS step    =                   NO
  Max. gradient              =         0.0304891861
  Conv. limit for gradients  =         0.0004500000
  Conv. for gradients        =                   NO
  RMS gradient               =         0.0026779714
  Conv. limit for RMS grad.  =         0.0003000000
  Conv. for gradients        =                   NO
  Pressure Deviation [bar]   =      3351.9026893640
  Pressure Tolerance [bar]   =      1000.0000000000
  Conv. for  PRESSURE        =                   NO
 ---------------------------------------------------

 --------------------------
 OPTIMIZATION STEP:      6
 --------------------------

 CELL| Volume [angstrom^3]:                                             3265.329
 CELL| Vector a [angstrom]:      12.359     0.000     0.000    |a| =      12.359
 CELL| Vector b [angstrom]:       6.154    16.255     0.000    |b| =      17.381
 CELL| Vector c [angstrom]:      -6.265     0.012    16.254    |c| =      17.420
 CELL| Angle (b,c), alpha [degree]:                                       97.278
 CELL| Angle (a,c), beta  [degree]:                                      111.078
 CELL| Angle (a,b), gamma [degree]:                                       69.264
 CELL| Numerically orthorhombic:                                              NO

 Number of electrons:                                                        992
 Number of occupied orbitals:                                                496
 Number of molecular orbitals:                                               496

 Number of orbital functions:                                               2960
 Number of independent orbital functions:                                   2960

 Extrapolation method: ASPC


 SCF WAVEFUNCTION OPTIMIZATION

  ----------------------------------- OT ---------------------------------------
  Minimizer      : DIIS                : direct inversion
                                         in the iterative subspace
                                         using   7 DIIS vectors
                                         safer DIIS on
  Preconditioner : FULL_SINGLE_INVERSE : inversion of 
                                         H + eS - 2*(Sc)(c^T*H*c+const)(Sc)^T
  Precond_solver : DEFAULT
  stepsize       :    0.08000000                  energy_gap     :    0.08000000
  eps_taylor     :   0.10000E-15                  max_taylor     :             4
  ----------------------------------- OT ---------------------------------------

  Step     Update method      Time    Convergence         Total energy    Change
  ------------------------------------------------------------------------------
     1 OT DIIS     0.80E-01    4.4     0.00137751     -2209.0061161563 -2.21E+03
     2 OT DIIS     0.80E-01    6.2     0.00074053     -2209.1669775526 -1.61E-01
     3 OT DIIS     0.80E-01    6.3     0.00037792     -2209.2284364373 -6.15E-02
     4 OT DIIS     0.80E-01    6.3     0.00015526     -2209.2455509033 -1.71E-02
     5 OT DIIS     0.80E-01    6.3     0.00008153     -2209.2477309114 -2.18E-03
     6 OT DIIS     0.80E-01    6.3     0.00003846     -2209.2482945417 -5.64E-04
     7 OT DIIS     0.80E-01    6.3     0.00001597     -2209.2484085820 -1.14E-04
     8 OT DIIS     0.80E-01    6.3     0.00000749     -2209.2484316767 -2.31E-05
     9 OT DIIS     0.80E-01    6.3     0.00000395     -2209.2484363531 -4.68E-06
    10 OT DIIS     0.80E-01    6.3     0.00000183     -2209.2484376431 -1.29E-06
    11 OT DIIS     0.80E-01    6.3     0.00000096     -2209.2484379352 -2.92E-07

  *** SCF run converged in    11 steps ***


  Electronic density on regular grids:       -991.9999995573        0.0000004427
  Core density on regular grids:              991.9999999321       -0.0000000679
  Total charge density on r-space grids:        0.0000003748
  Total charge density g-space grids:           0.0000003748

  Overlap energy of the core charge distribution:               0.00005277052085
  Self energy of the core charge distribution:              -4280.41057313132478
  Core Hamiltonian energy:                                   1327.17038748452455
  Hartree energy:                                            1253.62856253569612
  Exchange-correlation energy:                               -509.05910372867561
  Dispersion energy:                                           -0.57776386592673

  Total energy:                                             -2209.24843793518630

  outer SCF iter =    1 RMS gradient =   0.96E-06 energy =      -2209.2484379352
  outer SCF loop converged in   1 iterations or   11 steps


 ENERGY| Total FORCE_EVAL ( QS ) energy (a.u.):            -2209.248438023762446


 --------  Informations at step =     6 ------------
  Optimization Method        =                 BFGS
  Total Energy               =     -2209.2484380238
  Internal Pressure [bar]    =      7522.7690783304
  Real energy change         =        -0.0144945170
  Predicted change in energy =        -0.0092332708
  Scaling factor             =         0.9137173669
  Step size                  =         0.1320528469
  Trust radius               =         0.4724315332
  Decrease in energy         =                  YES
  Used time                  =               96.222

  Convergence check :
  Max. step size             =         0.1320528469
  Conv. limit for step size  =         0.0018897261
  Convergence in step size   =                   NO
  RMS step size              =         0.0146768987
  Conv. limit for RMS step   =         0.0009448631
  Convergence in RMS step    =                   NO
  Max. gradient              =         0.0102115496
  Conv. limit for gradients  =         0.0004500000
  Conv. for gradients        =                   NO
  RMS gradient               =         0.0012993748
  Conv. limit for RMS grad.  =         0.0003000000
  Conv. for gradients        =                   NO
  Pressure Deviation [bar]   =      -977.2309216696
  Pressure Tolerance [bar]   =      1000.0000000000
  Conv. for  PRESSURE        =                  YES
 ---------------------------------------------------

 --------------------------
 OPTIMIZATION STEP:      7
 --------------------------

 CELL| Volume [angstrom^3]:                                             3264.164
 CELL| Vector a [angstrom]:      12.370     0.000     0.000    |a| =      12.370
 CELL| Vector b [angstrom]:       6.151    16.249     0.000    |b| =      17.375
 CELL| Vector c [angstrom]:      -6.266     0.006    16.240    |c| =      17.407
 CELL| Angle (b,c), alpha [degree]:                                       97.305
 CELL| Angle (a,c), beta  [degree]:                                      111.100
 CELL| Angle (a,b), gamma [degree]:                                       69.265
 CELL| Numerically orthorhombic:                                              NO

 Number of electrons:                                                        992
 Number of occupied orbitals:                                                496
 Number of molecular orbitals:                                               496

 Number of orbital functions:                                               2960
 Number of independent orbital functions:                                   2960

 Extrapolation method: ASPC


 SCF WAVEFUNCTION OPTIMIZATION

  ----------------------------------- OT ---------------------------------------
  Minimizer      : DIIS                : direct inversion
                                         in the iterative subspace
                                         using   7 DIIS vectors
                                         safer DIIS on
  Preconditioner : FULL_SINGLE_INVERSE : inversion of 
                                         H + eS - 2*(Sc)(c^T*H*c+const)(Sc)^T
  Precond_solver : DEFAULT
  stepsize       :    0.08000000                  energy_gap     :    0.08000000
  eps_taylor     :   0.10000E-15                  max_taylor     :             4
  ----------------------------------- OT ---------------------------------------

  Step     Update method      Time    Convergence         Total energy    Change
  ------------------------------------------------------------------------------
     1 OT DIIS     0.80E-01    4.4     0.00077459     -2209.1761951175 -2.21E+03
     2 OT DIIS     0.80E-01    6.2     0.00042824     -2209.2276152427 -5.14E-02
     3 OT DIIS     0.80E-01    6.2     0.00021704     -2209.2489171190 -2.13E-02
     4 OT DIIS     0.80E-01    6.2     0.00007421     -2209.2553520578 -6.43E-03
     5 OT DIIS     0.80E-01    6.2     0.00003495     -2209.2559835834 -6.32E-04
     6 OT DIIS     0.80E-01    6.2     0.00001435     -2209.2561213267 -1.38E-04
     7 OT DIIS     0.80E-01    6.2     0.00000654     -2209.2561426041 -2.13E-05
     8 OT DIIS     0.80E-01    6.2     0.00000291     -2209.2561469691 -4.36E-06
     9 OT DIIS     0.80E-01    6.2     0.00000138     -2209.2561478382 -8.69E-07
    10 OT DIIS     0.80E-01    6.2     0.00000068     -2209.2561480223 -1.84E-07

  *** SCF run converged in    10 steps ***


  Electronic density on regular grids:       -991.9999995570        0.0000004430
  Core density on regular grids:              991.9999999320       -0.0000000680
  Total charge density on r-space grids:        0.0000003751
  Total charge density g-space grids:           0.0000003751

  Overlap energy of the core charge distribution:               0.00005326287301
  Self energy of the core charge distribution:              -4280.41057313132478
  Core Hamiltonian energy:                                   1327.35869462624396
  Hartree energy:                                            1253.48345366070816
  Exchange-correlation energy:                               -509.11024412331778
  Dispersion energy:                                           -0.57753231752364

  Total energy:                                             -2209.25614802234122

  outer SCF iter =    1 RMS gradient =   0.68E-06 energy =      -2209.2561480223
  outer SCF loop converged in   1 iterations or   10 steps


 ENERGY| Total FORCE_EVAL ( QS ) energy (a.u.):            -2209.256148076880436


 --------  Informations at step =     7 ------------
  Optimization Method        =                 BFGS
  Total Energy               =     -2209.2561480769
  Internal Pressure [bar]    =      8594.3553989672
  Real energy change         =        -0.0077100531
  Predicted change in energy =        -0.0075913240
  Scaling factor             =         0.9137173669
  Step size                  =         0.2610479749
  Trust radius               =         0.4724315332
  Decrease in energy         =                  YES
  Used time                  =               89.187

  Convergence check :
  Max. step size             =         0.2610479749
  Conv. limit for step size  =         0.0018897261
  Convergence in step size   =                   NO
  RMS step size              =         0.0241994604
  Conv. limit for RMS step   =         0.0009448631
  Convergence in RMS step    =                   NO
  Max. gradient              =         0.0172552201
  Conv. limit for gradients  =         0.0004500000
  Conv. for gradients        =                   NO
  RMS gradient               =         0.0017873584
  Conv. limit for RMS grad.  =         0.0003000000
  Conv. for gradients        =                   NO
  Pressure Deviation [bar]   =        94.3553989672
  Pressure Tolerance [bar]   =      1000.0000000000
  Conv. for  PRESSURE        =                  YES
 ---------------------------------------------------

 --------------------------
 OPTIMIZATION STEP:      8
 --------------------------

 CELL| Volume [angstrom^3]:                                             3269.873
 CELL| Vector a [angstrom]:      12.376     0.000     0.000    |a| =      12.376
 CELL| Vector b [angstrom]:       6.136    16.251     0.000    |b| =      17.371
 CELL| Vector c [angstrom]:      -6.273     0.004    16.257    |c| =      17.425
 CELL| Angle (b,c), alpha [degree]:                                       97.294
 CELL| Angle (a,c), beta  [degree]:                                      111.098
 CELL| Angle (a,b), gamma [degree]:                                       69.314
 CELL| Numerically orthorhombic:                                              NO

 Number of electrons:                                                        992
 Number of occupied orbitals:                                                496
 Number of molecular orbitals:                                               496

 Number of orbital functions:                                               2960
 Number of independent orbital functions:                                   2960

 Extrapolation method: ASPC


 SCF WAVEFUNCTION OPTIMIZATION

  ----------------------------------- OT ---------------------------------------
  Minimizer      : DIIS                : direct inversion
                                         in the iterative subspace
                                         using   7 DIIS vectors
                                         safer DIIS on
  Preconditioner : FULL_SINGLE_INVERSE : inversion of 
                                         H + eS - 2*(Sc)(c^T*H*c+const)(Sc)^T
  Precond_solver : DEFAULT
  stepsize       :    0.08000000                  energy_gap     :    0.08000000
  eps_taylor     :   0.10000E-15                  max_taylor     :             4
  ----------------------------------- OT ---------------------------------------

  Step     Update method      Time    Convergence         Total energy    Change
  ------------------------------------------------------------------------------
     1 OT DIIS     0.80E-01    4.4     0.00046334     -2209.2335322567 -2.21E+03
     2 OT DIIS     0.80E-01    6.1     0.00025985     -2209.2521141836 -1.86E-02
     3 OT DIIS     0.80E-01    6.1     0.00013037     -2209.2601893185 -8.08E-03
     4 OT DIIS     0.80E-01    6.1     0.00004496     -2209.2625690756 -2.38E-03
     5 OT DIIS     0.80E-01    6.1     0.00002175     -2209.2627895655 -2.20E-04
     6 OT DIIS     0.80E-01    6.1     0.00000921     -2209.2628409125 -5.13E-05
     7 OT DIIS     0.80E-01    6.1     0.00000411     -2209.2628498570 -8.94E-06
     8 OT DIIS     0.80E-01    6.1     0.00000185     -2209.2628515443 -1.69E-06
     9 OT DIIS     0.80E-01    6.1     0.00000081     -2209.2628519271 -3.83E-07

  *** SCF run converged in     9 steps ***


  Electronic density on regular grids:       -991.9999995570        0.0000004430
  Core density on regular grids:              991.9999999320       -0.0000000680
  Total charge density on r-space grids:        0.0000003751
  Total charge density g-space grids:           0.0000003751

  Overlap energy of the core charge distribution:               0.00005234781439
  Self energy of the core charge distribution:              -4280.41057313132478
  Core Hamiltonian energy:                                   1326.97096977628803
  Hartree energy:                                            1253.75540150287247
  Exchange-correlation energy:                               -509.00196058582401
  Dispersion energy:                                           -0.57674183688276

  Total energy:                                             -2209.26285192705609

  outer SCF iter =    1 RMS gradient =   0.81E-06 energy =      -2209.2628519271
  outer SCF loop converged in   1 iterations or    9 steps


 ENERGY| Total FORCE_EVAL ( QS ) energy (a.u.):            -2209.262851997938469


 --------  Informations at step =     8 ------------
  Optimization Method        =                 BFGS
  Total Energy               =     -2209.2628519979
  Internal Pressure [bar]    =      6334.3307908035
  Real energy change         =        -0.0067039211
  Predicted change in energy =        -0.0053208136
  Scaling factor             =         0.9137173669
  Step size                  =         0.2939685388
  Trust radius               =         0.4724315332
  Decrease in energy         =                  YES
  Used time                  =               81.843

  Convergence check :
  Max. step size             =         0.2939685388
  Conv. limit for step size  =         0.0018897261
  Convergence in step size   =                   NO
  RMS step size              =         0.0247339348
  Conv. limit for RMS step   =         0.0009448631
  Convergence in RMS step    =                   NO
  Max. gradient              =         0.0144534615
  Conv. limit for gradients  =         0.0004500000
  Conv. for gradients        =                   NO
  RMS gradient               =         0.0016209156
  Conv. limit for RMS grad.  =         0.0003000000
  Conv. for gradients        =                   NO
  Pressure Deviation [bar]   =     -2165.6692091965
  Pressure Tolerance [bar]   =      1000.0000000000
  Conv. for  PRESSURE        =                   NO
 ---------------------------------------------------

 --------------------------
 OPTIMIZATION STEP:      9
 --------------------------

 CELL| Volume [angstrom^3]:                                             3263.837
 CELL| Vector a [angstrom]:      12.383     0.000     0.000    |a| =      12.383
 CELL| Vector b [angstrom]:       6.133    16.237     0.000    |b| =      17.357
 CELL| Vector c [angstrom]:      -6.278     0.003    16.233    |c| =      17.405
 CELL| Angle (b,c), alpha [degree]:                                       97.313
 CELL| Angle (a,c), beta  [degree]:                                      111.143
 CELL| Angle (a,b), gamma [degree]:                                       69.307
 CELL| Numerically orthorhombic:                                              NO

 Number of electrons:                                                        992
 Number of occupied orbitals:                                                496
 Number of molecular orbitals:                                               496

 Number of orbital functions:                                               2960
 Number of independent orbital functions:                                   2960

 Extrapolation method: ASPC


 SCF WAVEFUNCTION OPTIMIZATION

  ----------------------------------- OT ---------------------------------------
  Minimizer      : DIIS                : direct inversion
                                         in the iterative subspace
                                         using   7 DIIS vectors
                                         safer DIIS on
  Preconditioner : FULL_SINGLE_INVERSE : inversion of 
                                         H + eS - 2*(Sc)(c^T*H*c+const)(Sc)^T
  Precond_solver : DEFAULT
  stepsize       :    0.08000000                  energy_gap     :    0.08000000
  eps_taylor     :   0.10000E-15                  max_taylor     :             4
  ----------------------------------- OT ---------------------------------------

  Step     Update method      Time    Convergence         Total energy    Change
  ------------------------------------------------------------------------------
     1 OT DIIS     0.80E-01    4.4     0.00050533     -2209.2307320486 -2.21E+03
     2 OT DIIS     0.80E-01    6.1     0.00028324     -2209.2527488263 -2.20E-02
     3 OT DIIS     0.80E-01    6.1     0.00014363     -2209.2622461355 -9.50E-03
     4 OT DIIS     0.80E-01    6.1     0.00004504     -2209.2652254113 -2.98E-03
     5 OT DIIS     0.80E-01    6.1     0.00002116     -2209.2654643558 -2.39E-04
     6 OT DIIS     0.80E-01    6.1     0.00000905     -2209.2655142657 -4.99E-05
     7 OT DIIS     0.80E-01    6.1     0.00000390     -2209.2655229420 -8.68E-06
     8 OT DIIS     0.80E-01    6.1     0.00000181     -2209.2655244829 -1.54E-06
     9 OT DIIS     0.80E-01    6.1     0.00000079     -2209.2655248594 -3.76E-07

  *** SCF run converged in     9 steps ***


  Electronic density on regular grids:       -991.9999995588        0.0000004412
  Core density on regular grids:              991.9999999321       -0.0000000679
  Total charge density on r-space grids:        0.0000003733
  Total charge density g-space grids:           0.0000003733

  Overlap energy of the core charge distribution:               0.00005365968051
  Self energy of the core charge distribution:              -4280.41057313132478
  Core Hamiltonian energy:                                   1327.39641104192697
  Hartree energy:                                            1253.44998557046461
  Exchange-correlation energy:                               -509.12420776437034
  Dispersion energy:                                           -0.57719423580102

  Total energy:                                             -2209.26552485942375

  outer SCF iter =    1 RMS gradient =   0.79E-06 energy =      -2209.2655248594
  outer SCF loop converged in   1 iterations or    9 steps


 ENERGY| Total FORCE_EVAL ( QS ) energy (a.u.):            -2209.265524929196999


 --------  Informations at step =     9 ------------
  Optimization Method        =                 BFGS
  Total Energy               =     -2209.2655249292
  Internal Pressure [bar]    =      8865.5624725106
  Real energy change         =        -0.0026729313
  Predicted change in energy =        -0.0031318984
  Scaling factor             =         0.9137173669
  Step size                  =         0.1350391683
  Trust radius               =         0.4724315332
  Decrease in energy         =                  YES
  Used time                  =               82.192

  Convergence check :
  Max. step size             =         0.1350391683
  Conv. limit for step size  =         0.0018897261
  Convergence in step size   =                   NO
  RMS step size              =         0.0138593673
  Conv. limit for RMS step   =         0.0009448631
  Convergence in RMS step    =                   NO
  Max. gradient              =         0.0122594283
  Conv. limit for gradients  =         0.0004500000
  Conv. for gradients        =                   NO
  RMS gradient               =         0.0011915535
  Conv. limit for RMS grad.  =         0.0003000000
  Conv. for gradients        =                   NO
  Pressure Deviation [bar]   =       365.5624725106
  Pressure Tolerance [bar]   =      1000.0000000000
  Conv. for  PRESSURE        =                  YES
 ---------------------------------------------------

 --------------------------
 OPTIMIZATION STEP:     10
 --------------------------

 CELL| Volume [angstrom^3]:                                             3264.822
 CELL| Vector a [angstrom]:      12.394     0.000     0.000    |a| =      12.394
 CELL| Vector b [angstrom]:       6.134    16.230     0.000    |b| =      17.350
 CELL| Vector c [angstrom]:      -6.290     0.001    16.231    |c| =      17.407
 CELL| Angle (b,c), alpha [degree]:                                       97.337
 CELL| Angle (a,c), beta  [degree]:                                      111.183
 CELL| Angle (a,b), gamma [degree]:                                       69.297
 CELL| Numerically orthorhombic:                                              NO

 Number of electrons:                                                        992
 Number of occupied orbitals:                                                496
 Number of molecular orbitals:                                               496

 Number of orbital functions:                                               2960
 Number of independent orbital functions:                                   2960

 Extrapolation method: ASPC


 SCF WAVEFUNCTION OPTIMIZATION

  ----------------------------------- OT ---------------------------------------
  Minimizer      : DIIS                : direct inversion
                                         in the iterative subspace
                                         using   7 DIIS vectors
                                         safer DIIS on
  Preconditioner : FULL_SINGLE_INVERSE : inversion of 
                                         H + eS - 2*(Sc)(c^T*H*c+const)(Sc)^T
  Precond_solver : DEFAULT
  stepsize       :    0.08000000                  energy_gap     :    0.08000000
  eps_taylor     :   0.10000E-15                  max_taylor     :             4
  ----------------------------------- OT ---------------------------------------

  Step     Update method      Time    Convergence         Total energy    Change
  ------------------------------------------------------------------------------
     1 OT DIIS     0.80E-01    4.4     0.00037984     -2209.2495188461 -2.21E+03
     2 OT DIIS     0.80E-01    6.1     0.00021171     -2209.2618561758 -1.23E-02
     3 OT DIIS     0.80E-01    6.1     0.00011030     -2209.2669463211 -5.09E-03
     4 OT DIIS     0.80E-01    6.1     0.00003503     -2209.2685979157 -1.65E-03
     5 OT DIIS     0.80E-01    6.1     0.00001579     -2209.2687466266 -1.49E-04
     6 OT DIIS     0.80E-01    6.1     0.00000660     -2209.2687758016 -2.92E-05
     7 OT DIIS     0.80E-01    6.1     0.00000296     -2209.2687801689 -4.37E-06
     8 OT DIIS     0.80E-01    6.1     0.00000130     -2209.2687810676 -8.99E-07
     9 OT DIIS     0.80E-01    6.1     0.00000060     -2209.2687812449 -1.77E-07

  *** SCF run converged in     9 steps ***


  Electronic density on regular grids:       -991.9999995576        0.0000004424
  Core density on regular grids:              991.9999999321       -0.0000000679
  Total charge density on r-space grids:        0.0000003745
  Total charge density g-space grids:           0.0000003745

  Overlap energy of the core charge distribution:               0.00005368191052
  Self energy of the core charge distribution:              -4280.41057313132478
  Core Hamiltonian energy:                                   1327.27120005594725
  Hartree energy:                                            1253.53933583676962
  Exchange-correlation energy:                               -509.09185678111311
  Dispersion energy:                                           -0.57694090704139

  Total energy:                                             -2209.26878124485165

  outer SCF iter =    1 RMS gradient =   0.60E-06 energy =      -2209.2687812449
  outer SCF loop converged in   1 iterations or    9 steps


 ENERGY| Total FORCE_EVAL ( QS ) energy (a.u.):            -2209.268781278729875


 --------  Informations at step =    10 ------------
  Optimization Method        =                 BFGS
  Total Energy               =     -2209.2687812787
  Internal Pressure [bar]    =      8139.1416428498
  Real energy change         =        -0.0032563495
  Predicted change in energy =        -0.0033749468
  Scaling factor             =         0.9137173669
  Step size                  =         0.1455520355
  Trust radius               =         0.4724315332
  Decrease in energy         =                  YES
  Used time                  =               81.901

  Convergence check :
  Max. step size             =         0.1455520355
  Conv. limit for step size  =         0.0018897261
  Convergence in step size   =                   NO
  RMS step size              =         0.0176852585
  Conv. limit for RMS step   =         0.0009448631
  Convergence in RMS step    =                   NO
  Max. gradient              =         0.0182375511
  Conv. limit for gradients  =         0.0004500000
  Conv. for gradients        =                   NO
  RMS gradient               =         0.0015014602
  Conv. limit for RMS grad.  =         0.0003000000
  Conv. for gradients        =                   NO
  Pressure Deviation [bar]   =      -360.8583571502
  Pressure Tolerance [bar]   =      1000.0000000000
  Conv. for  PRESSURE        =                  YES
 ---------------------------------------------------

 --------------------------
 OPTIMIZATION STEP:     11
 --------------------------

 CELL| Volume [angstrom^3]:                                             3259.656
 CELL| Vector a [angstrom]:      12.404     0.000     0.000    |a| =      12.404
 CELL| Vector b [angstrom]:       6.131    16.206     0.000    |b| =      17.327
 CELL| Vector c [angstrom]:      -6.294    -0.003    16.215    |c| =      17.394
 CELL| Angle (b,c), alpha [degree]:                                       97.366
 CELL| Angle (a,c), beta  [degree]:                                      111.212
 CELL| Angle (a,b), gamma [degree]:                                       69.278
 CELL| Numerically orthorhombic:                                              NO

 Number of electrons:                                                        992
 Number of occupied orbitals:                                                496
 Number of molecular orbitals:                                               496

 Number of orbital functions:                                               2960
 Number of independent orbital functions:                                   2960

 Extrapolation method: ASPC


 SCF WAVEFUNCTION OPTIMIZATION

  ----------------------------------- OT ---------------------------------------
  Minimizer      : DIIS                : direct inversion
                                         in the iterative subspace
                                         using   7 DIIS vectors
                                         safer DIIS on
  Preconditioner : FULL_SINGLE_INVERSE : inversion of 
                                         H + eS - 2*(Sc)(c^T*H*c+const)(Sc)^T
  Precond_solver : DEFAULT
  stepsize       :    0.08000000                  energy_gap     :    0.08000000
  eps_taylor     :   0.10000E-15                  max_taylor     :             4
  ----------------------------------- OT ---------------------------------------

  Step     Update method      Time    Convergence         Total energy    Change
  ------------------------------------------------------------------------------
     1 OT DIIS     0.80E-01    4.4     0.00036904     -2209.2512047571 -2.21E+03
     2 OT DIIS     0.80E-01    6.1     0.00020792     -2209.2629508770 -1.17E-02
     3 OT DIIS     0.80E-01    6.1     0.00010736     -2209.2679484048 -5.00E-03
     4 OT DIIS     0.80E-01    6.1     0.00003530     -2209.2694961007 -1.55E-03
     5 OT DIIS     0.80E-01    6.1     0.00001675     -2209.2696429965 -1.47E-04
     6 OT DIIS     0.80E-01    6.1     0.00000705     -2209.2696748566 -3.19E-05
     7 OT DIIS     0.80E-01    6.1     0.00000310     -2209.2696799229 -5.07E-06
     8 OT DIIS     0.80E-01    6.1     0.00000135     -2209.2696809750 -1.05E-06
     9 OT DIIS     0.80E-01    6.1     0.00000067     -2209.2696811738 -1.99E-07

  *** SCF run converged in     9 steps ***


  Electronic density on regular grids:       -991.9999995583        0.0000004417
  Core density on regular grids:              991.9999999320       -0.0000000680
  Total charge density on r-space grids:        0.0000003737
  Total charge density g-space grids:           0.0000003737

  Overlap energy of the core charge distribution:               0.00005432846200
  Self energy of the core charge distribution:              -4280.41057313132478
  Core Hamiltonian energy:                                   1327.62389994322598
  Hartree energy:                                            1253.28403534151721
  Exchange-correlation energy:                               -509.18987789668950
  Dispersion energy:                                           -0.57721975897907

  Total energy:                                             -2209.26968117378738

  outer SCF iter =    1 RMS gradient =   0.67E-06 energy =      -2209.2696811738
  outer SCF loop converged in   1 iterations or    9 steps


 ENERGY| Total FORCE_EVAL ( QS ) energy (a.u.):            -2209.269681217588186


 --------  Informations at step =    11 ------------
  Optimization Method        =                 BFGS
  Total Energy               =     -2209.2696812176
  Internal Pressure [bar]    =     10222.6196398478
  Real energy change         =        -0.0008999389
  Predicted change in energy =        -0.0023342413
  Scaling factor             =         0.9137173669
  Step size                  =         0.1418719644
  Trust radius               =         0.4724315332
  Decrease in energy         =                  YES
  Used time                  =               81.985

  Convergence check :
  Max. step size             =         0.1418719644
  Conv. limit for step size  =         0.0018897261
  Convergence in step size   =                   NO
  RMS step size              =         0.0160086349
  Conv. limit for RMS step   =         0.0009448631
  Convergence in RMS step    =                   NO
  Max. gradient              =         0.0152194316
  Conv. limit for gradients  =         0.0004500000
  Conv. for gradients        =                   NO
  RMS gradient               =         0.0015311528
  Conv. limit for RMS grad.  =         0.0003000000
  Conv. for gradients        =                   NO
  Pressure Deviation [bar]   =      1722.6196398478
  Pressure Tolerance [bar]   =      1000.0000000000
  Conv. for  PRESSURE        =                   NO
 ---------------------------------------------------

 --------------------------
 OPTIMIZATION STEP:     12
 --------------------------

 CELL| Volume [angstrom^3]:                                             3261.218
 CELL| Vector a [angstrom]:      12.414     0.000     0.000    |a| =      12.414
 CELL| Vector b [angstrom]:       6.132    16.206     0.000    |b| =      17.328
 CELL| Vector c [angstrom]:      -6.293    -0.009    16.211    |c| =      17.389
 CELL| Angle (b,c), alpha [degree]:                                       97.384
 CELL| Angle (a,c), beta  [degree]:                                      111.215
[...]
 CELL| Angle (b,c), alpha [degree]:                                       97.527
 CELL| Angle (a,c), beta  [degree]:                                      111.330
 CELL| Angle (a,b), gamma [degree]:                                       69.175
 CELL| Numerically orthorhombic:                                              NO

 Number of electrons:                                                        992
 Number of occupied orbitals:                                                496
 Number of molecular orbitals:                                               496

 Number of orbital functions:                                               2960
 Number of independent orbital functions:                                   2960

 Extrapolation method: ASPC


 SCF WAVEFUNCTION OPTIMIZATION

  ----------------------------------- OT ---------------------------------------
  Minimizer      : DIIS                : direct inversion
                                         in the iterative subspace
                                         using   7 DIIS vectors
                                         safer DIIS on
  Preconditioner : FULL_SINGLE_INVERSE : inversion of 
                                         H + eS - 2*(Sc)(c^T*H*c+const)(Sc)^T
  Precond_solver : DEFAULT
  stepsize       :    0.08000000                  energy_gap     :    0.08000000
  eps_taylor     :   0.10000E-15                  max_taylor     :             4
  ----------------------------------- OT ---------------------------------------

  Step     Update method      Time    Convergence         Total energy    Change
  ------------------------------------------------------------------------------
     1 OT DIIS     0.80E-01    4.4     0.00002310     -2209.3617005111 -2.21E+03
     2 OT DIIS     0.80E-01    6.1     0.00001395     -2209.3617501527 -4.96E-05
     3 OT DIIS     0.80E-01    6.1     0.00000367     -2209.3617796165 -2.95E-05
     4 OT DIIS     0.80E-01    6.1     0.00000150     -2209.3617815995 -1.98E-06
     5 OT DIIS     0.80E-01    6.1     0.00000072     -2209.3617818872 -2.88E-07

  *** SCF run converged in     5 steps ***


  Electronic density on regular grids:       -991.9999995592        0.0000004408
  Core density on regular grids:              991.9999999320       -0.0000000680
  Total charge density on r-space grids:        0.0000003728
  Total charge density g-space grids:           0.0000003728

  Overlap energy of the core charge distribution:               0.00005325938021
  Self energy of the core charge distribution:              -4280.41057313132478
  Core Hamiltonian energy:                                   1327.40812956570221
  Hartree energy:                                            1253.36464822635708
  Exchange-correlation energy:                               -509.14869746696547
  Dispersion energy:                                           -0.57534234036265

  Total energy:                                             -2209.36178188721306

  outer SCF iter =    1 RMS gradient =   0.72E-06 energy =      -2209.3617818872
  outer SCF loop converged in   1 iterations or    5 steps


 ENERGY| Total FORCE_EVAL ( QS ) energy (a.u.):            -2209.361781964812508


 --------  Informations at step =   122 ------------
  Optimization Method        =                 BFGS
  Total Energy               =     -2209.3617819648
  Internal Pressure [bar]    =      8488.3966340819
  Real energy change         =         0.0000162995
  Predicted change in energy =        -0.0000029442
  Scaling factor             =         0.5202226354
  Step size                  =         0.0068402274
  Trust radius               =         0.4724315332
  Decrease in energy         =                   NO
  Used time                  =               58.067

  Convergence check :
  Max. step size             =         0.0068402274
  Conv. limit for step size  =         0.0018897261
  Convergence in step size   =                   NO
  RMS step size              =         0.0016691694
  Conv. limit for RMS step   =         0.0009448631
  Convergence in RMS step    =                   NO
  Max. gradient              =         0.0002658143
  Conv. limit for gradients  =         0.0004500000
  Conv. in gradients         =                  YES
  RMS gradient               =         0.0000406895
  Conv. limit for RMS grad.  =         0.0003000000
  Conv. in RMS gradients     =                  YES
  Pressure Deviation [bar]   =       -11.6033659181
  Pressure Tolerance [bar]   =      1000.0000000000
  Conv. for  PRESSURE        =                  YES
 ---------------------------------------------------

 --------------------------
 OPTIMIZATION STEP:    123
 --------------------------

 CELL| Volume [angstrom^3]:                                             3258.466
 CELL| Vector a [angstrom]:      12.402     0.000     0.000    |a| =      12.402
 CELL| Vector b [angstrom]:       6.202    16.303     0.000    |b| =      17.443
 CELL| Vector c [angstrom]:      -6.292    -0.031    16.115    |c| =      17.300
 CELL| Angle (b,c), alpha [degree]:                                       97.527
 CELL| Angle (a,c), beta  [degree]:                                      111.327
 CELL| Angle (a,b), gamma [degree]:                                       69.171
 CELL| Numerically orthorhombic:                                              NO

 Number of electrons:                                                        992
 Number of occupied orbitals:                                                496
 Number of molecular orbitals:                                               496

 Number of orbital functions:                                               2960
 Number of independent orbital functions:                                   2960

 Extrapolation method: ASPC


 SCF WAVEFUNCTION OPTIMIZATION

  ----------------------------------- OT ---------------------------------------
  Minimizer      : DIIS                : direct inversion
                                         in the iterative subspace
                                         using   7 DIIS vectors
                                         safer DIIS on
  Preconditioner : FULL_SINGLE_INVERSE : inversion of 
                                         H + eS - 2*(Sc)(c^T*H*c+const)(Sc)^T
  Precond_solver : DEFAULT
  stepsize       :    0.08000000                  energy_gap     :    0.08000000
  eps_taylor     :   0.10000E-15                  max_taylor     :             4
  ----------------------------------- OT ---------------------------------------

  Step     Update method      Time    Convergence         Total energy    Change
  ------------------------------------------------------------------------------
     1 OT DIIS     0.80E-01    4.4     0.00002252     -2209.3616826543 -2.21E+03
     2 OT DIIS     0.80E-01    6.1     0.00001360     -2209.3617298333 -4.72E-05
     3 OT DIIS     0.80E-01    6.1     0.00000362     -2209.3617577750 -2.79E-05
     4 OT DIIS     0.80E-01    6.1     0.00000148     -2209.3617597024 -1.93E-06
     5 OT DIIS     0.80E-01    6.1     0.00000071     -2209.3617599833 -2.81E-07

  *** SCF run converged in     5 steps ***


  Electronic density on regular grids:       -991.9999995591        0.0000004409
  Core density on regular grids:              991.9999999320       -0.0000000680
  Total charge density on r-space grids:        0.0000003729
  Total charge density g-space grids:           0.0000003729

  Overlap energy of the core charge distribution:               0.00005325579602
  Self energy of the core charge distribution:              -4280.41057313132478
  Core Hamiltonian energy:                                   1327.40922255365126
  Hartree energy:                                            1253.36396821071276
  Exchange-correlation energy:                               -509.14906522349736
  Dispersion energy:                                           -0.57536564862354

  Total energy:                                             -2209.36175998328554

  outer SCF iter =    1 RMS gradient =   0.71E-06 energy =      -2209.3617599833
  outer SCF loop converged in   1 iterations or    5 steps


 ENERGY| Total FORCE_EVAL ( QS ) energy (a.u.):            -2209.361760057764059


 --------  Informations at step =   123 ------------
  Optimization Method        =                 BFGS
  Total Energy               =     -2209.3617600578
  Internal Pressure [bar]    =      8497.5970887559
  Real energy change         =         0.0000219070
  Predicted change in energy =        -0.0000022541
  Scaling factor             =         0.5202226354
  Step size                  =         0.0048133770
  Trust radius               =         0.4724315332
  Decrease in energy         =                   NO
  Used time                  =               57.904

  Convergence check :
  Max. step size             =         0.0048133770
  Conv. limit for step size  =         0.0018897261
  Convergence in step size   =                   NO
  RMS step size              =         0.0009590409
  Conv. limit for RMS step   =         0.0009448631
  Convergence in RMS step    =                   NO
  Max. gradient              =         0.0001774985
  Conv. limit for gradients  =         0.0004500000
  Conv. in gradients         =                  YES
  RMS gradient               =         0.0000367108
  Conv. limit for RMS grad.  =         0.0003000000
  Conv. in RMS gradients     =                  YES
  Pressure Deviation [bar]   =        -2.4029112441
  Pressure Tolerance [bar]   =      1000.0000000000
  Conv. for  PRESSURE        =                  YES
 ---------------------------------------------------

 --------------------------
 OPTIMIZATION STEP:    124
 --------------------------

 CELL| Volume [angstrom^3]:                                             3258.268
 CELL| Vector a [angstrom]:      12.402     0.000     0.000    |a| =      12.402
 CELL| Vector b [angstrom]:       6.204    16.299     0.000    |b| =      17.440
 CELL| Vector c [angstrom]:      -6.290    -0.031    16.119    |c| =      17.302
 CELL| Angle (b,c), alpha [degree]:                                       97.527
 CELL| Angle (a,c), beta  [degree]:                                      111.316
 CELL| Angle (a,b), gamma [degree]:                                       69.163
 CELL| Numerically orthorhombic:                                              NO

 Number of electrons:                                                        992
 Number of occupied orbitals:                                                496
 Number of molecular orbitals:                                               496

 Number of orbital functions:                                               2960
 Number of independent orbital functions:                                   2960

 Extrapolation method: ASPC


 SCF WAVEFUNCTION OPTIMIZATION

  ----------------------------------- OT ---------------------------------------
  Minimizer      : DIIS                : direct inversion
                                         in the iterative subspace
                                         using   7 DIIS vectors
                                         safer DIIS on
  Preconditioner : FULL_SINGLE_INVERSE : inversion of 
                                         H + eS - 2*(Sc)(c^T*H*c+const)(Sc)^T
  Precond_solver : DEFAULT
  stepsize       :    0.08000000                  energy_gap     :    0.08000000
  eps_taylor     :   0.10000E-15                  max_taylor     :             4
  ----------------------------------- OT ---------------------------------------

  Step     Update method      Time    Convergence         Total energy    Change
  ------------------------------------------------------------------------------
     1 OT DIIS     0.80E-01    4.4     0.00002601     -2209.3616220935 -2.21E+03
     2 OT DIIS     0.80E-01    6.1     0.00001572     -2209.3616850435 -6.29E-05
     3 OT DIIS     0.80E-01    6.1     0.00000418     -2209.3617225363 -3.75E-05
     4 OT DIIS     0.80E-01    6.1     0.00000171     -2209.3617251388 -2.60E-06
     5 OT DIIS     0.80E-01    6.1     0.00000080     -2209.3617255277 -3.89E-07

  *** SCF run converged in     5 steps ***


  Electronic density on regular grids:       -991.9999995585        0.0000004415
  Core density on regular grids:              991.9999999320       -0.0000000680
  Total charge density on r-space grids:        0.0000003735
  Total charge density g-space grids:           0.0000003735

  Overlap energy of the core charge distribution:               0.00005324647784
  Self energy of the core charge distribution:              -4280.41057313132478
  Core Hamiltonian energy:                                   1327.40967621623395
  Hartree energy:                                            1253.36382160437461
  Exchange-correlation energy:                               -509.14930307936095
  Dispersion energy:                                           -0.57540038409833

  Total energy:                                             -2209.36172552769722

  outer SCF iter =    1 RMS gradient =   0.80E-06 energy =      -2209.3617255277
  outer SCF loop converged in   1 iterations or    5 steps


 ENERGY| Total FORCE_EVAL ( QS ) energy (a.u.):            -2209.361725621634832


 --------  Informations at step =   124 ------------
  Optimization Method        =                 BFGS
  Total Energy               =     -2209.3617256216
  Internal Pressure [bar]    =      8505.7559874590
  Real energy change         =         0.0000344361
  Predicted change in energy =        -0.0000040430
  Scaling factor             =         0.5202226354
  Step size                  =         0.0103999062
  Trust radius               =         0.4724315332
  Decrease in energy         =                   NO
  Used time                  =               57.916

  Convergence check :
  Max. step size             =         0.0103999062
  Conv. limit for step size  =         0.0018897261
  Convergence in step size   =                   NO
  RMS step size              =         0.0024303738
  Conv. limit for RMS step   =         0.0009448631
  Convergence in RMS step    =                   NO
  Max. gradient              =         0.0001622348
  Conv. limit for gradients  =         0.0004500000
  Conv. in gradients         =                  YES
  RMS gradient               =         0.0000432257
  Conv. limit for RMS grad.  =         0.0003000000
  Conv. in RMS gradients     =                  YES
  Pressure Deviation [bar]   =         5.7559874590
  Pressure Tolerance [bar]   =      1000.0000000000
  Conv. for  PRESSURE        =                  YES
 ---------------------------------------------------

 --------------------------
 OPTIMIZATION STEP:    125
 --------------------------

 CELL| Volume [angstrom^3]:                                             3258.282
 CELL| Vector a [angstrom]:      12.402     0.000     0.000    |a| =      12.402
 CELL| Vector b [angstrom]:       6.204    16.299     0.000    |b| =      17.439
 CELL| Vector c [angstrom]:      -6.290    -0.031    16.119    |c| =      17.303
 CELL| Angle (b,c), alpha [degree]:                                       97.527
 CELL| Angle (a,c), beta  [degree]:                                      111.315
 CELL| Angle (a,b), gamma [degree]:                                       69.161
 CELL| Numerically orthorhombic:                                              NO

 Number of electrons:                                                        992
 Number of occupied orbitals:                                                496
 Number of molecular orbitals:                                               496

 Number of orbital functions:                                               2960
 Number of independent orbital functions:                                   2960

 Extrapolation method: ASPC


 SCF WAVEFUNCTION OPTIMIZATION

  ----------------------------------- OT ---------------------------------------
  Minimizer      : DIIS                : direct inversion
                                         in the iterative subspace
                                         using   7 DIIS vectors
                                         safer DIIS on
  Preconditioner : FULL_SINGLE_INVERSE : inversion of 
                                         H + eS - 2*(Sc)(c^T*H*c+const)(Sc)^T
  Precond_solver : DEFAULT
  stepsize       :    0.08000000                  energy_gap     :    0.08000000
  eps_taylor     :   0.10000E-15                  max_taylor     :             4
  ----------------------------------- OT ---------------------------------------

  Step     Update method      Time    Convergence         Total energy    Change
  ------------------------------------------------------------------------------
     1 OT DIIS     0.80E-01    4.4     0.00003562     -2209.3615365912 -2.21E+03
     2 OT DIIS     0.80E-01    6.1     0.00002156     -2209.3616547183 -1.18E-04
     3 OT DIIS     0.80E-01    6.1     0.00000586     -2209.3617253606 -7.06E-05
     4 OT DIIS     0.80E-01    6.1     0.00000243     -2209.3617304446 -5.08E-06
     5 OT DIIS     0.80E-01    6.1     0.00000115     -2209.3617312133 -7.69E-07
     6 OT DIIS     0.80E-01    6.1     0.00000038     -2209.3617314120 -1.99E-07

  *** SCF run converged in     6 steps ***


  Electronic density on regular grids:       -991.9999995587        0.0000004413
  Core density on regular grids:              991.9999999320       -0.0000000680
  Total charge density on r-space grids:        0.0000003733
  Total charge density g-space grids:           0.0000003733

  Overlap energy of the core charge distribution:               0.00005324784156
  Self energy of the core charge distribution:              -4280.41057313132478
  Core Hamiltonian energy:                                   1327.40966655506281
  Hartree energy:                                            1253.36381634488521
  Exchange-correlation energy:                               -509.14930045078268
  Dispersion energy:                                           -0.57539397764770

  Total energy:                                             -2209.36173141196559

  outer SCF iter =    1 RMS gradient =   0.38E-06 energy =      -2209.3617314120
  outer SCF loop converged in   1 iterations or    6 steps


 ENERGY| Total FORCE_EVAL ( QS ) energy (a.u.):            -2209.361731432391935


 --------  Informations at step =   125 ------------
  Optimization Method        =                 BFGS
  Total Energy               =     -2209.3617314324
  Internal Pressure [bar]    =      8506.0517131710
  Real energy change         =        -0.0000058108
  Predicted change in energy =        -0.0000020013
  Scaling factor             =         0.5202226354
  Step size                  =         0.0024859110
  Trust radius               =         0.4724315332
  Decrease in energy         =                   NO
  Used time                  =               64.089

  Convergence check :
  Max. step size             =         0.0024859110
  Conv. limit for step size  =         0.0018897261
  Convergence in step size   =                   NO
  RMS step size              =         0.0005939254
  Conv. limit for RMS step   =         0.0009448631
  Convergence in RMS step    =                  YES
  Max. gradient              =         0.0001475508
  Conv. limit for gradients  =         0.0004500000
  Conv. in gradients         =                  YES
  RMS gradient               =         0.0000351569
  Conv. limit for RMS grad.  =         0.0003000000
  Conv. in RMS gradients     =                  YES
  Pressure Deviation [bar]   =         6.0517131710
  Pressure Tolerance [bar]   =      1000.0000000000
  Conv. for  PRESSURE        =                  YES
 ---------------------------------------------------

 --------------------------
 OPTIMIZATION STEP:    126
 --------------------------
