2168
Atoms. Timestep: 0
1 7.55241 7.55241 11.3135
1 5.69274 5.69274 11.3135
1 11.1255 11.1255 3.80315
1 12.4665 12.4665 5.61036
1 16.434 8.523 11.3135
1 16.434 5.90046 11.3135
2 6.66234 1.3936 6.54825
2 8.28274 1.37717 4.99152
2 8.41092 6.41583 9.90836
2 6.77738 4.84474 9.95814
2 11.5334 9.56459 4.89875
2 12.664 10.6985 6.45548
2 15.0864 6.04771 9.9423
2 15.0568 8.3419 9.92646
3 8.45036 2.88581 6.69533
3 7.82587 3.5103 7.78595
4 7.00417 3.22106 8.10952
3 8.52267 4.62124 8.3833
3 9.79795 4.96964 7.90587
4 10.2548 5.66316 8.32447
3 10.406 4.33529 6.84467
3 9.69935 3.27037 6.26089
4 10.0905 2.81021 5.55493
3 12.5622 8.41421 6.71569
3 13.374 8.41092 7.76559
4 13.706 9.20633 8.1163
3 13.7224 7.18166 8.33352
3 13.2392 5.96883 7.93076
4 13.4496 5.19314 8.39462
3 12.411 5.9261 6.79489
3 12.0297 7.18494 6.23826
4 11.4151 7.19809 5.54135
5 11.8391 4.6311 6.3695
4 12.4175 3.92115 6.6908
4 11.8489 4.59823 5.40106
3 7.70097 1.7683 6.03236
3 7.83244 5.38707 9.4875
3 12.2302 9.65004 5.91696
3 14.7084 7.19152 9.53502
2 4.79544 31.4678 4.53445
2 6.41583 31.4613 2.95056
3 5.3542 31.0537 3.5547
3 4.74943 29.7686 2.89173
3 3.57275 29.2952 3.4393
4 3.12903 29.739 4.12716
3 5.38378 29.2164 1.73549
4 6.11673 29.6272 1.33499
3 4.83817 28.0298 1.24448
5 5.45937 27.4086 0
4 5.3049 26.4522 0
2 12.8744 10.8859 2.94151
2 13.9886 12.1053 4.49372
3 13.9229 11.3296 3.5547
3 15.2245 10.8695 2.85326
3 16.434 11.369 3.45514
4 16.434 11.9607 4.17242
3 15.2014 9.93271 1.79206
4 14.3995 9.58102 1.47754
3 16.434 9.54487 1.22638
5 16.434 8.66729 0
4 15.6485 8.09868 0
1 27.2758 0 16.9746
1 5.59216 0 16.9746
1 0 27.2758 16.9746
1 0 5.59216 16.9746
1 5.59216 0 5.65245
1 27.2758 0 5.65245
1 0 27.2758 5.65245
1 0 5.59216 5.65245
1 25.3971 0 18.8019
1 7.4709 0 18.8019
1 0 25.3971 18.8019
1 0 7.4709 18.8019
1 7.4709 0 3.82509
1 25.3971 0 3.82509
1 0 25.3971 3.82509
1 0 7.4709 3.82509
1 25.3156 25.3156 11.3135
1 25.3156 7.55241 11.3135
1 7.55241 25.3156 11.3135
1 27.1753 27.1753 11.3135
1 27.1753 5.69274 11.3135
1 5.69274 27.1753 11.3135
1 21.7425 21.7425 3.80315
1 21.7425 11.1255 3.80315
1 11.1255 21.7425 3.80315
1 21.7425 11.1255 18.8239
1 11.1255 21.7425 18.8239
1 11.1255 11.1255 18.8239
1 21.7425 21.7425 18.8239
1 20.4015 20.4015 5.61036
1 20.4015 12.4665 5.61036
1 12.4665 20.4015 5.61036
1 20.4015 12.4665 17.0166
1 12.4665 20.4015 17.0166
1 12.4665 12.4665 17.0166
1 20.4015 20.4015 17.0166
1 16.434 24.345 11.3135
1 24.345 16.434 11.3135
1 8.523 16.434 11.3135
1 16.434 26.9675 11.3135
1 26.9675 16.434 11.3135
1 5.90046 16.434 11.3135
2 26.2057 31.4744 6.54825
2 31.4744 6.66234 6.54825
2 1.3936 26.2057 6.54825
2 26.2057 1.3936 16.0788
2 6.66234 31.4744 16.0788
2 1.3936 6.66234 16.0788
2 31.4744 26.2057 16.0788
2 26.2057 31.4744 16.0788
2 6.66234 1.3936 16.0788
2 1.3936 26.2057 16.0788
2 31.4744 6.66234 16.0788
2 6.66234 31.4744 6.54825
2 26.2057 1.3936 6.54825
2 31.4744 26.2057 6.54825
2 1.3936 6.66234 6.54825
2 24.5853 31.4908 4.99152
2 31.4908 8.28274 4.99152
2 1.37717 24.5853 4.99152
2 24.5853 1.37717 17.6355
2 8.28274 31.4908 17.6355
2 1.37717 8.28274 17.6355
2 31.4908 24.5853 17.6355
2 24.5853 31.4908 17.6355
2 8.28274 1.37717 17.6355
2 1.37717 24.5853 17.6355
2 31.4908 8.28274 17.6355
2 8.28274 31.4908 4.99152
2 24.5853 1.37717 4.99152
2 31.4908 24.5853 4.99152
2 1.37717 8.28274 4.99152
2 24.4571 26.4522 9.90836
2 26.4522 8.41092 9.90836
2 6.41583 24.4571 9.90836
2 24.4571 6.41583 12.7186
2 8.41092 26.4522 12.7186
2 6.41583 8.41092 12.7186
2 26.4522 24.4571 12.7186
2 24.4571 26.4522 12.7186
2 8.41092 6.41583 12.7186
2 6.41583 24.4571 12.7186
2 26.4522 8.41092 12.7186
2 8.41092 26.4522 9.90836
2 24.4571 6.41583 9.90836
2 26.4522 24.4571 9.90836
2 6.41583 8.41092 9.90836
2 26.0906 28.0233 9.95814
2 28.0233 6.77738 9.95814
2 4.84474 26.0906 9.95814
2 26.0906 4.84474 12.6689
2 6.77738 28.0233 12.6689
2 4.84474 6.77738 12.6689
2 28.0233 26.0906 12.6689
2 26.0906 28.0233 12.6689
2 6.77738 4.84474 12.6689
2 4.84474 26.0906 12.6689
2 28.0233 6.77738 12.6689
2 6.77738 28.0233 9.95814
2 26.0906 4.84474 9.95814
2 28.0233 26.0906 9.95814
2 4.84474 6.77738 9.95814
2 21.3346 23.3034 4.89875
2 23.3034 11.5334 4.89875
2 9.56459 21.3346 4.89875
2 21.3346 9.56459 17.7283
2 11.5334 23.3034 17.7283
2 9.56459 11.5334 17.7283
2 23.3034 21.3346 17.7283
2 21.3346 23.3034 17.7283
2 11.5334 9.56459 17.7283
2 9.56459 21.3346 17.7283
2 23.3034 11.5334 17.7283
2 11.5334 23.3034 4.89875
2 21.3346 9.56459 4.89875
2 23.3034 21.3346 4.89875
2 9.56459 11.5334 4.89875
2 20.204 22.1695 6.45548
2 22.1695 12.664 6.45548
2 10.6985 20.204 6.45548
2 20.204 10.6985 16.1715
2 12.664 22.1695 16.1715
2 10.6985 12.664 16.1715
2 22.1695 20.204 16.1715
2 20.204 22.1695 16.1715
2 12.664 10.6985 16.1715
2 10.6985 20.204 16.1715
2 22.1695 12.664 16.1715
2 12.664 22.1695 6.45548
2 20.204 10.6985 6.45548
2 22.1695 20.204 6.45548
2 10.6985 12.664 6.45548
2 17.7816 26.8203 9.9423
2 26.8203 15.0864 9.9423
2 6.04771 17.7816 9.9423
2 17.7816 6.04771 12.6847
2 15.0864 26.8203 12.6847
2 6.04771 15.0864 12.6847
2 26.8203 17.7816 12.6847
2 17.7816 26.8203 12.6847
2 15.0864 6.04771 12.6847
2 6.04771 17.7816 12.6847
2 26.8203 15.0864 12.6847
2 15.0864 26.8203 9.9423
2 17.7816 6.04771 9.9423
2 26.8203 17.7816 9.9423
2 6.04771 15.0864 9.9423
2 17.8112 24.5261 9.92646
2 24.5261 15.0568 9.92646
2 8.3419 17.8112 9.92646
2 17.8112 8.3419 12.7005
2 15.0568 24.5261 12.7005
2 8.3419 15.0568 12.7005
2 24.5261 17.8112 12.7005
2 17.8112 24.5261 12.7005
2 15.0568 8.3419 12.7005
2 8.3419 17.8112 12.7005
2 24.5261 15.0568 12.7005
2 15.0568 24.5261 9.92646
2 17.8112 8.3419 9.92646
2 24.5261 17.8112 9.92646
2 8.3419 15.0568 9.92646
3 24.4176 29.9822 6.69533
3 29.9822 8.45036 6.69533
3 2.88581 24.4176 6.69533
3 24.4176 2.88581 15.9317
3 8.45036 29.9822 15.9317
3 2.88581 8.45036 15.9317
3 29.9822 24.4176 15.9317
3 24.4176 29.9822 15.9317
3 8.45036 2.88581 15.9317
3 2.88581 24.4176 15.9317
3 29.9822 8.45036 15.9317
3 8.45036 29.9822 6.69533
3 24.4176 2.88581 6.69533
3 29.9822 24.4176 6.69533
3 2.88581 8.45036 6.69533
3 25.0421 29.3577 7.78595
3 29.3577 7.82587 7.78595
3 3.5103 25.0421 7.78595
3 25.0421 3.5103 14.8411
3 7.82587 29.3577 14.8411
3 3.5103 7.82587 14.8411
3 29.3577 25.0421 14.8411
3 25.0421 29.3577 14.8411
3 7.82587 3.5103 14.8411
3 3.5103 25.0421 14.8411
3 29.3577 7.82587 14.8411
3 7.82587 29.3577 7.78595
3 25.0421 3.5103 7.78595
3 29.3577 25.0421 7.78595
3 3.5103 7.82587 7.78595
4 25.8638 29.6469 8.10952
4 29.6469 7.00417 8.10952
4 3.22106 25.8638 8.10952
4 25.8638 3.22106 14.5175
4 7.00417 29.6469 14.5175
4 3.22106 7.00417 14.5175
4 29.6469 25.8638 14.5175
4 25.8638 29.6469 14.5175
4 7.00417 3.22106 14.5175
4 3.22106 25.8638 14.5175
4 29.6469 7.00417 14.5175
4 7.00417 29.6469 8.10952
4 25.8638 3.22106 8.10952
4 29.6469 25.8638 8.10952
4 3.22106 7.00417 8.10952
3 24.3453 28.2468 8.3833
3 28.2468 8.52267 8.3833
3 4.62124 24.3453 8.3833
3 24.3453 4.62124 14.2437
3 8.52267 28.2468 14.2437
3 4.62124 8.52267 14.2437
3 28.2468 24.3453 14.2437
3 24.3453 28.2468 14.2437
3 8.52267 4.62124 14.2437
3 4.62124 24.3453 14.2437
3 28.2468 8.52267 14.2437
3 8.52267 28.2468 8.3833
3 24.3453 4.62124 8.3833
3 28.2468 24.3453 8.3833
3 4.62124 8.52267 8.3833
3 23.07 27.8984 7.90587
3 27.8984 9.79795 7.90587
3 4.96964 23.07 7.90587
3 23.07 4.96964 14.7211
3 9.79795 27.8984 14.7211
3 4.96964 9.79795 14.7211
3 27.8984 23.07 14.7211
3 23.07 27.8984 14.7211
3 9.79795 4.96964 14.7211
3 4.96964 23.07 14.7211
3 27.8984 9.79795 14.7211
3 9.79795 27.8984 7.90587
3 23.07 4.96964 7.90587
3 27.8984 23.07 7.90587
3 4.96964 9.79795 7.90587
4 22.6132 27.2048 8.32447
4 27.2048 10.2548 8.32447
4 5.66316 22.6132 8.32447
4 22.6132 5.66316 14.3025
4 10.2548 27.2048 14.3025
4 5.66316 10.2548 14.3025
4 27.2048 22.6132 14.3025
4 22.6132 27.2048 14.3025
4 10.2548 5.66316 14.3025
4 5.66316 22.6132 14.3025
4 27.2048 10.2548 14.3025
4 10.2548 27.2048 8.32447
4 22.6132 5.66316 8.32447
4 27.2048 22.6132 8.32447
4 5.66316 10.2548 8.32447
3 22.462 28.5327 6.84467
3 28.5327 10.406 6.84467
3 4.33529 22.462 6.84467
3 22.462 4.33529 15.7823
3 10.406 28.5327 15.7823
3 4.33529 10.406 15.7823
3 28.5327 22.462 15.7823
3 22.462 28.5327 15.7823
3 10.406 4.33529 15.7823
3 4.33529 22.462 15.7823
3 28.5327 10.406 15.7823
3 10.406 28.5327 6.84467
3 22.462 4.33529 6.84467
3 28.5327 22.462 6.84467
3 4.33529 10.406 6.84467
3 23.1686 29.5976 6.26089
3 29.5976 9.69935 6.26089
3 3.27037 23.1686 6.26089
3 23.1686 3.27037 16.3661
3 9.69935 29.5976 16.3661
3 3.27037 9.69935 16.3661
3 29.5976 23.1686 16.3661
3 23.1686 29.5976 16.3661
3 9.69935 3.27037 16.3661
3 3.27037 23.1686 16.3661
3 29.5976 9.69935 16.3661
3 9.69935 29.5976 6.26089
3 23.1686 3.27037 6.26089
3 29.5976 23.1686 6.26089
3 3.27037 9.69935 6.26089
4 22.7775 30.0578 5.55493
4 30.0578 10.0905 5.55493
4 2.81021 22.7775 5.55493
4 22.7775 2.81021 17.0721
4 10.0905 30.0578 17.0721
4 2.81021 10.0905 17.0721
4 30.0578 22.7775 17.0721
4 22.7775 30.0578 17.0721
4 10.0905 2.81021 17.0721
4 2.81021 22.7775 17.0721
4 30.0578 10.0905 17.0721
4 10.0905 30.0578 5.55493
4 22.7775 2.81021 5.55493
4 30.0578 22.7775 5.55493
4 2.81021 10.0905 5.55493
3 20.3058 24.4538 6.71569
3 24.4538 12.5622 6.71569
3 8.41421 20.3058 6.71569
3 20.3058 8.41421 15.9113
3 12.5622 24.4538 15.9113
3 8.41421 12.5622 15.9113
3 24.4538 20.3058 15.9113
3 20.3058 24.4538 15.9113
3 12.5622 8.41421 15.9113
3 8.41421 20.3058 15.9113
3 24.4538 12.5622 15.9113
3 12.5622 24.4538 6.71569
3 20.3058 8.41421 6.71569
3 24.4538 20.3058 6.71569
3 8.41421 12.5622 6.71569
3 19.494 24.4571 7.76559
3 24.4571 13.374 7.76559
3 8.41092 19.494 7.76559
3 19.494 8.41092 14.8614
3 13.374 24.4571 14.8614
3 8.41092 13.374 14.8614
3 24.4571 19.494 14.8614
3 19.494 24.4571 14.8614
3 13.374 8.41092 14.8614
3 8.41092 19.494 14.8614
3 24.4571 13.374 14.8614
3 13.374 24.4571 7.76559
3 19.494 8.41092 7.76559
3 24.4571 19.494 7.76559
3 8.41092 13.374 7.76559
4 19.162 23.6617 8.1163
4 23.6617 13.706 8.1163
4 9.20633 19.162 8.1163
4 19.162 9.20633 14.5107
4 13.706 23.6617 14.5107
4 9.20633 13.706 14.5107
4 23.6617 19.162 14.5107
4 19.162 23.6617 14.5107
4 13.706 9.20633 14.5107
4 9.20633 19.162 14.5107
4 23.6617 13.706 14.5107
4 13.706 23.6617 8.1163
4 19.162 9.20633 8.1163
4 23.6617 19.162 8.1163
4 9.20633 13.706 8.1163
3 19.1456 25.6863 8.33352
3 25.6863 13.7224 8.33352
3 7.18166 19.1456 8.33352
3 19.1456 7.18166 14.2935
3 13.7224 25.6863 14.2935
3 7.18166 13.7224 14.2935
3 25.6863 19.1456 14.2935
3 19.1456 25.6863 14.2935
3 13.7224 7.18166 14.2935
3 7.18166 19.1456 14.2935
3 25.6863 13.7224 14.2935
3 13.7224 25.6863 8.33352
3 19.1456 7.18166 8.33352
3 25.6863 19.1456 8.33352
3 7.18166 13.7224 8.33352
3 19.6288 26.8992 7.93076
3 26.8992 13.2392 7.93076
3 5.96883 19.6288 7.93076
3 19.6288 5.96883 14.6962
3 13.2392 26.8992 14.6962
3 5.96883 13.2392 14.6962
3 26.8992 19.6288 14.6962
3 19.6288 26.8992 14.6962
3 13.2392 5.96883 14.6962
3 5.96883 19.6288 14.6962
3 26.8992 13.2392 14.6962
3 13.2392 26.8992 7.93076
3 19.6288 5.96883 7.93076
3 26.8992 19.6288 7.93076
3 5.96883 13.2392 7.93076
4 19.4184 27.6749 8.39462
4 27.6749 13.4496 8.39462
4 5.19314 19.4184 8.39462
4 19.4184 5.19314 14.2324
4 13.4496 27.6749 14.2324
4 5.19314 13.4496 14.2324
4 27.6749 19.4184 14.2324
4 19.4184 27.6749 14.2324
4 13.4496 5.19314 14.2324
4 5.19314 19.4184 14.2324
4 27.6749 13.4496 14.2324
4 13.4496 27.6749 8.39462
4 19.4184 5.19314 8.39462
4 27.6749 19.4184 8.39462
4 5.19314 13.4496 8.39462
3 20.457 26.9419 6.79489
3 26.9419 12.411 6.79489
3 5.9261 20.457 6.79489
3 20.457 5.9261 15.8321
3 12.411 26.9419 15.8321
3 5.9261 12.411 15.8321
3 26.9419 20.457 15.8321
3 20.457 26.9419 15.8321
3 12.411 5.9261 15.8321
3 5.9261 20.457 15.8321
3 26.9419 12.411 15.8321
3 12.411 26.9419 6.79489
3 20.457 5.9261 6.79489
3 26.9419 20.457 6.79489
3 5.9261 12.411 6.79489
3 20.8383 25.6831 6.23826
3 25.6831 12.0297 6.23826
3 7.18494 20.8383 6.23826
3 20.8383 7.18494 16.3887
3 12.0297 25.6831 16.3887
3 7.18494 12.0297 16.3887
3 25.6831 20.8383 16.3887
3 20.8383 25.6831 16.3887
3 12.0297 7.18494 16.3887
3 7.18494 20.8383 16.3887
3 25.6831 12.0297 16.3887
3 12.0297 25.6831 6.23826
3 20.8383 7.18494 6.23826
3 25.6831 20.8383 6.23826
3 7.18494 12.0297 6.23826
4 21.4529 25.6699 5.54135
4 25.6699 11.4151 5.54135
4 7.19809 21.4529 5.54135
4 21.4529 7.19809 17.0857
4 11.4151 25.6699 17.0857
4 7.19809 11.4151 17.0857
4 25.6699 21.4529 17.0857
4 21.4529 25.6699 17.0857
4 11.4151 7.19809 17.0857
4 7.19809 21.4529 17.0857
4 25.6699 11.4151 17.0857
4 11.4151 25.6699 5.54135
4 21.4529 7.19809 5.54135
4 25.6699 21.4529 5.54135
4 7.19809 11.4151 5.54135
5 21.0289 28.2369 6.3695
5 28.2369 11.8391 6.3695
5 4.6311 21.0289 6.3695
5 21.0289 4.6311 16.2575
5 11.8391 28.2369 16.2575
5 4.6311 11.8391 16.2575
5 28.2369 21.0289 16.2575
5 21.0289 28.2369 16.2575
5 11.8391 4.6311 16.2575
5 4.6311 21.0289 16.2575
5 28.2369 11.8391 16.2575
5 11.8391 28.2369 6.3695
5 21.0289 4.6311 6.3695
5 28.2369 21.0289 6.3695
5 4.6311 11.8391 6.3695
4 20.4505 28.9469 6.6908
4 28.9469 12.4175 6.6908
4 3.92115 20.4505 6.6908
4 20.4505 3.92115 15.9362
4 12.4175 28.9469 15.9362
4 3.92115 12.4175 15.9362
4 28.9469 20.4505 15.9362
4 20.4505 28.9469 15.9362
4 12.4175 3.92115 15.9362
4 3.92115 20.4505 15.9362
4 28.9469 12.4175 15.9362
4 12.4175 28.9469 6.6908
4 20.4505 3.92115 6.6908
4 28.9469 20.4505 6.6908
4 3.92115 12.4175 6.6908
4 21.0191 28.2698 5.40106
4 28.2698 11.8489 5.40106
4 4.59823 21.0191 5.40106
4 21.0191 4.59823 17.2259
4 11.8489 28.2698 17.2259
4 4.59823 11.8489 17.2259
4 28.2698 21.0191 17.2259
4 21.0191 28.2698 17.2259
4 11.8489 4.59823 17.2259
4 4.59823 21.0191 17.2259
4 28.2698 11.8489 17.2259
4 11.8489 28.2698 5.40106
4 21.0191 4.59823 5.40106
4 28.2698 21.0191 5.40106
4 4.59823 11.8489 5.40106
3 25.167 31.0997 6.03236
3 31.0997 7.70097 6.03236
3 1.7683 25.167 6.03236
3 25.167 1.7683 16.5946
3 7.70097 31.0997 16.5946
3 1.7683 7.70097 16.5946
3 31.0997 25.167 16.5946
3 25.167 31.0997 16.5946
3 7.70097 1.7683 16.5946
3 1.7683 25.167 16.5946
3 31.0997 7.70097 16.5946
3 7.70097 31.0997 6.03236
3 25.167 1.7683 6.03236
3 31.0997 25.167 6.03236
3 1.7683 7.70097 6.03236
3 25.0356 27.4809 9.4875
3 27.4809 7.83244 9.4875
3 5.38707 25.0356 9.4875
3 25.0356 5.38707 13.1395
3 7.83244 27.4809 13.1395
3 5.38707 7.83244 13.1395
3 27.4809 25.0356 13.1395
3 25.0356 27.4809 13.1395
3 7.83244 5.38707 13.1395
3 5.38707 25.0356 13.1395
3 27.4809 7.83244 13.1395
3 7.83244 27.4809 9.4875
3 25.0356 5.38707 9.4875
3 27.4809 25.0356 9.4875
3 5.38707 7.83244 9.4875
3 20.6378 23.218 5.91696
3 23.218 12.2302 5.91696
3 9.65004 20.6378 5.91696
3 20.6378 9.65004 16.71
3 12.2302 23.218 16.71
3 9.65004 12.2302 16.71
3 23.218 20.6378 16.71
3 20.6378 23.218 16.71
3 12.2302 9.65004 16.71
3 9.65004 20.6378 16.71
3 23.218 12.2302 16.71
3 12.2302 23.218 5.91696
3 20.6378 9.65004 5.91696
3 23.218 20.6378 5.91696
3 9.65004 12.2302 5.91696
3 18.1596 25.6765 9.53502
3 25.6765 14.7084 9.53502
3 7.19152 18.1596 9.53502
3 18.1596 7.19152 13.092
3 14.7084 25.6765 13.092
3 7.19152 14.7084 13.092
3 25.6765 18.1596 13.092
3 18.1596 25.6765 13.092
3 14.7084 7.19152 13.092
3 7.19152 18.1596 13.092
3 25.6765 14.7084 13.092
3 14.7084 25.6765 9.53502
3 18.1596 7.19152 9.53502
3 25.6765 18.1596 9.53502
3 7.19152 14.7084 9.53502
2 28.0726 1.40018 4.53445
2 1.40018 4.79544 4.53445
2 31.4678 28.0726 4.53445
2 28.0726 31.4678 18.0925
2 4.79544 1.40018 18.0925
2 31.4678 4.79544 18.0925
2 1.40018 28.0726 18.0925
2 28.0726 1.40018 18.0925
2 4.79544 31.4678 18.0925
2 31.4678 28.0726 18.0925
2 1.40018 4.79544 18.0925
2 4.79544 1.40018 4.53445
2 28.0726 31.4678 4.53445
2 1.40018 28.0726 4.53445
2 31.4678 4.79544 4.53445
2 26.4522 1.40675 2.95056
2 1.40675 6.41583 2.95056
2 31.4613 26.4522 2.95056
2 26.4522 31.4613 19.6764
2 6.41583 1.40675 19.6764
2 31.4613 6.41583 19.6764
2 1.40675 26.4522 19.6764
2 26.4522 1.40675 19.6764
2 6.41583 31.4613 19.6764
2 31.4613 26.4522 19.6764
2 1.40675 6.41583 19.6764
2 6.41583 1.40675 2.95056
2 26.4522 31.4613 2.95056
2 1.40675 26.4522 2.95056
2 31.4613 6.41583 2.95056
3 27.5138 1.81431 3.5547
3 1.81431 5.3542 3.5547
3 31.0537 27.5138 3.5547
3 27.5138 31.0537 19.0723
3 5.3542 1.81431 19.0723
3 31.0537 5.3542 19.0723
3 1.81431 27.5138 19.0723
3 27.5138 1.81431 19.0723
3 5.3542 31.0537 19.0723
3 31.0537 27.5138 19.0723
3 1.81431 5.3542 19.0723
3 5.3542 1.81431 3.5547
3 27.5138 31.0537 3.5547
3 1.81431 27.5138 3.5547
3 31.0537 5.3542 3.5547
3 28.1186 3.09945 2.89173
3 3.09945 4.74943 2.89173
3 29.7686 28.1186 2.89173
3 28.1186 29.7686 19.7353
3 4.74943 3.09945 19.7353
3 29.7686 4.74943 19.7353
3 3.09945 28.1186 19.7353
3 28.1186 3.09945 19.7353
3 4.74943 29.7686 19.7353
3 29.7686 28.1186 19.7353
3 3.09945 4.74943 19.7353
3 4.74943 3.09945 2.89173
3 28.1186 29.7686 2.89173
3 3.09945 28.1186 2.89173
3 29.7686 4.74943 2.89173
3 29.2952 3.57275 3.4393
3 3.57275 3.57275 3.4393
3 29.2952 29.2952 3.4393
3 29.2952 29.2952 19.1877
3 3.57275 3.57275 19.1877
3 29.2952 3.57275 19.1877
3 3.57275 29.2952 19.1877
4 29.739 3.12903 4.12716
4 3.12903 3.12903 4.12716
4 29.739 29.739 4.12716
4 29.739 29.739 18.4998
4 3.12903 3.12903 18.4998
4 29.739 3.12903 18.4998
4 3.12903 29.739 18.4998
3 27.4842 3.65163 1.73549
3 3.65163 5.38378 1.73549
3 29.2164 27.4842 1.73549
3 27.4842 29.2164 20.8915
3 5.38378 3.65163 20.8915
3 29.2164 5.38378 20.8915
3 3.65163 27.4842 20.8915
3 27.4842 3.65163 20.8915
3 5.38378 29.2164 20.8915
3 29.2164 27.4842 20.8915
3 3.65163 5.38378 20.8915
3 5.38378 3.65163 1.73549
3 27.4842 29.2164 1.73549
3 3.65163 27.4842 1.73549
3 29.2164 5.38378 1.73549
4 26.7513 3.24078 1.33499
4 3.24078 6.11673 1.33499
4 29.6272 26.7513 1.33499
4 26.7513 29.6272 21.292
4 6.11673 3.24078 21.292
4 29.6272 6.11673 21.292
4 3.24078 26.7513 21.292
4 26.7513 3.24078 21.292
4 6.11673 29.6272 21.292
4 29.6272 26.7513 21.292
4 3.24078 6.11673 21.292
4 6.11673 3.24078 1.33499
4 26.7513 29.6272 1.33499
4 3.24078 26.7513 1.33499
4 29.6272 6.11673 1.33499
3 28.0298 4.83817 1.24448
3 4.83817 4.83817 1.24448
3 28.0298 28.0298 1.24448
3 28.0298 28.0298 21.3825
3 4.83817 4.83817 21.3825
3 28.0298 4.83817 21.3825
3 4.83817 28.0298 21.3825
5 27.4086 5.45937 0
5 5.45937 5.45937 0
5 27.4086 27.4086 0
4 27.5631 6.41583 0
4 6.41583 5.3049 0
4 26.4522 27.5631 0
4 27.5631 26.4522 0
4 5.3049 6.41583 0
4 26.4522 5.3049 0
4 6.41583 27.5631 0
2 19.9936 21.9821 2.94151
2 21.9821 12.8744 2.94151
2 10.8859 19.9936 2.94151
2 19.9936 10.8859 19.6855
2 12.8744 21.9821 19.6855
2 10.8859 12.8744 19.6855
2 21.9821 19.9936 19.6855
2 19.9936 21.9821 19.6855
2 12.8744 10.8859 19.6855
2 10.8859 19.9936 19.6855
2 21.9821 12.8744 19.6855
2 12.8744 21.9821 2.94151
2 19.9936 10.8859 2.94151
2 21.9821 19.9936 2.94151
2 10.8859 12.8744 2.94151
2 18.8794 20.7627 4.49372
2 20.7627 13.9886 4.49372
2 12.1053 18.8794 4.49372
2 18.8794 12.1053 18.1333
2 13.9886 20.7627 18.1333
2 12.1053 13.9886 18.1333
2 20.7627 18.8794 18.1333
2 18.8794 20.7627 18.1333
2 13.9886 12.1053 18.1333
2 12.1053 18.8794 18.1333
2 20.7627 13.9886 18.1333
2 13.9886 20.7627 4.49372
2 18.8794 12.1053 4.49372
2 20.7627 18.8794 4.49372
2 12.1053 13.9886 4.49372
3 18.9451 21.5384 3.5547
3 21.5384 13.9229 3.5547
3 11.3296 18.9451 3.5547
3 18.9451 11.3296 19.0723
3 13.9229 21.5384 19.0723
3 11.3296 13.9229 19.0723
3 21.5384 18.9451 19.0723
3 18.9451 21.5384 19.0723
3 13.9229 11.3296 19.0723
3 11.3296 18.9451 19.0723
3 21.5384 13.9229 19.0723
3 13.9229 21.5384 3.5547
3 18.9451 11.3296 3.5547
3 21.5384 18.9451 3.5547
3 11.3296 13.9229 3.5547
3 17.6435 21.9986 2.85326
3 21.9986 15.2245 2.85326
3 10.8695 17.6435 2.85326
3 17.6435 10.8695 19.7737
3 15.2245 21.9986 19.7737
3 10.8695 15.2245 19.7737
3 21.9986 17.6435 19.7737
3 17.6435 21.9986 19.7737
3 15.2245 10.8695 19.7737
3 10.8695 17.6435 19.7737
3 21.9986 15.2245 19.7737
3 15.2245 21.9986 2.85326
3 17.6435 10.8695 2.85326
3 21.9986 17.6435 2.85326
3 10.8695 15.2245 2.85326
3 16.434 21.499 3.45514
3 21.499 16.434 3.45514
3 11.369 16.434 3.45514
3 16.434 11.369 19.1719
3 16.434 21.499 19.1719
3 11.369 16.434 19.1719
3 21.499 16.434 19.1719
4 16.434 20.9073 4.17242
4 20.9073 16.434 4.17242
4 11.9607 16.434 4.17242
4 16.434 11.9607 18.4546
4 16.434 20.9073 18.4546
4 11.9607 16.434 18.4546
4 20.9073 16.434 18.4546
3 17.6666 22.9353 1.79206
3 22.9353 15.2014 1.79206
3 9.93271 17.6666 1.79206
3 17.6666 9.93271 20.8349
3 15.2014 22.9353 20.8349
3 9.93271 15.2014 20.8349
3 22.9353 17.6666 20.8349
3 17.6666 22.9353 20.8349
3 15.2014 9.93271 20.8349
3 9.93271 17.6666 20.8349
3 22.9353 15.2014 20.8349
3 15.2014 22.9353 1.79206
3 17.6666 9.93271 1.79206
3 22.9353 17.6666 1.79206
3 9.93271 15.2014 1.79206
4 18.4685 23.287 1.47754
4 23.287 14.3995 1.47754
4 9.58102 18.4685 1.47754
4 18.4685 9.58102 21.1495
4 14.3995 23.287 21.1495
4 9.58102 14.3995 21.1495
4 23.287 18.4685 21.1495
4 18.4685 23.287 21.1495
4 14.3995 9.58102 21.1495
4 9.58102 18.4685 21.1495
4 23.287 14.3995 21.1495
4 14.3995 23.287 1.47754
4 18.4685 9.58102 1.47754
4 23.287 18.4685 1.47754
4 9.58102 14.3995 1.47754
3 16.434 23.3231 1.22638
3 23.3231 16.434 1.22638
3 9.54487 16.434 1.22638
3 16.434 9.54487 21.4006
3 16.434 23.3231 21.4006
3 9.54487 16.434 21.4006
3 23.3231 16.434 21.4006
5 16.434 24.2007 0
5 24.2007 16.434 0
5 8.66729 16.434 0
4 17.2196 24.7693 0
4 24.7693 15.6485 0
4 8.09868 17.2196 0
4 17.2196 8.09868 0
4 15.6485 24.7693 0
4 8.09868 15.6485 0
4 24.7693 17.2196 0
1 7.55241 7.55241 33.9405
1 5.69274 5.69274 33.9405
1 11.1255 11.1255 26.4302
1 12.4665 12.4665 28.2374
1 16.434 8.523 33.9405
1 16.434 5.90046 33.9405
2 6.66234 1.3936 29.1752
2 8.28274 1.37717 27.6185
2 8.41092 6.41583 32.5354
2 6.77738 4.84474 32.5851
2 11.5334 9.56459 27.5257
2 12.664 10.6985 29.0825
2 15.0864 6.04771 32.5693
2 15.0568 8.3419 32.5535
3 8.45036 2.88581 29.3223
3 7.82587 3.5103 30.4129
4 7.00417 3.22106 30.7365
3 8.52267 4.62124 31.0103
3 9.79795 4.96964 30.5329
4 10.2548 5.66316 30.9515
3 10.406 4.33529 29.4717
3 9.69935 3.27037 28.8879
4 10.0905 2.81021 28.1819
3 12.5622 8.41421 29.3427
3 13.374 8.41092 30.3926
4 13.706 9.20633 30.7433
3 13.7224 7.18166 30.9605
3 13.2392 5.96883 30.5578
4 13.4496 5.19314 31.0216
3 12.411 5.9261 29.4219
3 12.0297 7.18494 28.8653
4 11.4151 7.19809 28.1684
5 11.8391 4.6311 28.9965
4 12.4175 3.92115 29.3178
4 11.8489 4.59823 28.0281
3 7.70097 1.7683 28.6594
3 7.83244 5.38707 32.1145
3 12.2302 9.65004 28.544
3 14.7084 7.19152 32.162
2 4.79544 31.4678 27.1615
2 6.41583 31.4613 25.5776
3 5.3542 31.0537 26.1817
3 4.74943 29.7686 25.5187
3 3.57275 29.2952 26.0663
4 3.12903 29.739 26.7542
3 5.38378 29.2164 24.3625
4 6.11673 29.6272 23.962
3 4.83817 28.0298 23.8715
5 5.45937 27.4086 22.627
4 5.3049 26.4522 22.627
2 12.8744 10.8859 25.5685
2 13.9886 12.1053 27.1207
3 13.9229 11.3296 26.1817
3 15.2245 10.8695 25.4803
3 16.434 11.369 26.0821
4 16.434 11.9607 26.7994
3 15.2014 9.93271 24.4191
4 14.3995 9.58102 24.1045
3 16.434 9.54487 23.8534
5 16.434 8.66729 22.627
4 15.6485 8.09868 22.627
1 27.2758 0 39.6016
1 5.59216 0 39.6016
1 0 27.2758 39.6016
1 0 5.59216 39.6016
1 5.59216 0 28.2795
1 27.2758 0 28.2795
1 0 27.2758 28.2795
1 0 5.59216 28.2795
1 25.3971 0 41.4289
1 7.4709 0 41.4289
1 0 25.3971 41.4289
1 0 7.4709 41.4289
1 7.4709 0 26.4521
1 25.3971 0 26.4521
1 0 25.3971 26.4521
1 0 7.4709 26.4521
1 25.3156 25.3156 33.9405
1 25.3156 7.55241 33.9405
1 7.55241 25.3156 33.9405
1 27.1753 27.1753 33.9405
1 27.1753 5.69274 33.9405
1 5.69274 27.1753 33.9405
1 21.7425 21.7425 26.4302
1 21.7425 11.1255 26.4302
1 11.1255 21.7425 26.4302
1 21.7425 11.1255 41.4509
1 11.1255 21.7425 41.4509
1 11.1255 11.1255 41.4509
1 21.7425 21.7425 41.4509
1 20.4015 20.4015 28.2374
1 20.4015 12.4665 28.2374
1 12.4665 20.4015 28.2374
1 20.4015 12.4665 39.6436
1 12.4665 20.4015 39.6436
1 12.4665 12.4665 39.6436
1 20.4015 20.4015 39.6436
1 16.434 24.345 33.9405
1 24.345 16.434 33.9405
1 8.523 16.434 33.9405
1 16.434 26.9675 33.9405
1 26.9675 16.434 33.9405
1 5.90046 16.434 33.9405
2 26.2057 31.4744 29.1752
2 31.4744 6.66234 29.1752
2 1.3936 26.2057 29.1752
2 26.2057 1.3936 38.7058
2 6.66234 31.4744 38.7058
2 1.3936 6.66234 38.7058
2 31.4744 26.2057 38.7058
2 26.2057 31.4744 38.7058
2 6.66234 1.3936 38.7058
2 1.3936 26.2057 38.7058
2 31.4744 6.66234 38.7058
2 6.66234 31.4744 29.1752
2 26.2057 1.3936 29.1752
2 31.4744 26.2057 29.1752
2 1.3936 6.66234 29.1752
2 24.5853 31.4908 27.6185
2 31.4908 8.28274 27.6185
2 1.37717 24.5853 27.6185
2 24.5853 1.37717 40.2625
2 8.28274 31.4908 40.2625
2 1.37717 8.28274 40.2625
2 31.4908 24.5853 40.2625
2 24.5853 31.4908 40.2625
2 8.28274 1.37717 40.2625
2 1.37717 24.5853 40.2625
2 31.4908 8.28274 40.2625
2 8.28274 31.4908 27.6185
2 24.5853 1.37717 27.6185
2 31.4908 24.5853 27.6185
2 1.37717 8.28274 27.6185
2 24.4571 26.4522 32.5354
2 26.4522 8.41092 32.5354
2 6.41583 24.4571 32.5354
2 24.4571 6.41583 35.3456
2 8.41092 26.4522 35.3456
2 6.41583 8.41092 35.3456
2 26.4522 24.4571 35.3456
2 24.4571 26.4522 35.3456
2 8.41092 6.41583 35.3456
2 6.41583 24.4571 35.3456
2 26.4522 8.41092 35.3456
2 8.41092 26.4522 32.5354
2 24.4571 6.41583 32.5354
2 26.4522 24.4571 32.5354
2 6.41583 8.41092 32.5354
2 26.0906 28.0233 32.5851
2 28.0233 6.77738 32.5851
2 4.84474 26.0906 32.5851
2 26.0906 4.84474 35.2959
2 6.77738 28.0233 35.2959
2 4.84474 6.77738 35.2959
2 28.0233 26.0906 35.2959
2 26.0906 28.0233 35.2959
2 6.77738 4.84474 35.2959
2 4.84474 26.0906 35.2959
2 28.0233 6.77738 35.2959
2 6.77738 28.0233 32.5851
2 26.0906 4.84474 32.5851
2 28.0233 26.0906 32.5851
2 4.84474 6.77738 32.5851
2 21.3346 23.3034 27.5257
2 23.3034 11.5334 27.5257
2 9.56459 21.3346 27.5257
2 21.3346 9.56459 40.3553
2 11.5334 23.3034 40.3553
2 9.56459 11.5334 40.3553
2 23.3034 21.3346 40.3553
2 21.3346 23.3034 40.3553
2 11.5334 9.56459 40.3553
2 9.56459 21.3346 40.3553
2 23.3034 11.5334 40.3553
2 11.5334 23.3034 27.5257
2 21.3346 9.56459 27.5257
2 23.3034 21.3346 27.5257
2 9.56459 11.5334 27.5257
2 20.204 22.1695 29.0825
2 22.1695 12.664 29.0825
2 10.6985 20.204 29.0825
2 20.204 10.6985 38.7985
2 12.664 22.1695 38.7985
2 10.6985 12.664 38.7985
2 22.1695 20.204 38.7985
2 20.204 22.1695 38.7985
2 12.664 10.6985 38.7985
2 10.6985 20.204 38.7985
2 22.1695 12.664 38.7985
2 12.664 22.1695 29.0825
2 20.204 10.6985 29.0825
2 22.1695 20.204 29.0825
2 10.6985 12.664 29.0825
2 17.7816 26.8203 32.5693
2 26.8203 15.0864 32.5693
2 6.04771 17.7816 32.5693
2 17.7816 6.04771 35.3117
2 15.0864 26.8203 35.3117
2 6.04771 15.0864 35.3117
2 26.8203 17.7816 35.3117
2 17.7816 26.8203 35.3117
2 15.0864 6.04771 35.3117
2 6.04771 17.7816 35.3117
2 26.8203 15.0864 35.3117
2 15.0864 26.8203 32.5693
2 17.7816 6.04771 32.5693
2 26.8203 17.7816 32.5693
2 6.04771 15.0864 32.5693
2 17.8112 24.5261 32.5535
2 24.5261 15.0568 32.5535
2 8.3419 17.8112 32.5535
2 17.8112 8.3419 35.3275
2 15.0568 24.5261 35.3275
2 8.3419 15.0568 35.3275
2 24.5261 17.8112 35.3275
2 17.8112 24.5261 35.3275
2 15.0568 8.3419 35.3275
2 8.3419 17.8112 35.3275
2 24.5261 15.0568 35.3275
2 15.0568 24.5261 32.5535
2 17.8112 8.3419 32.5535
2 24.5261 17.8112 32.5535
2 8.3419 15.0568 32.5535
3 24.4176 29.9822 29.3223
3 29.9822 8.45036 29.3223
3 2.88581 24.4176 29.3223
3 24.4176 2.88581 38.5587
3 8.45036 29.9822 38.5587
3 2.88581 8.45036 38.5587
3 29.9822 24.4176 38.5587
3 24.4176 29.9822 38.5587
3 8.45036 2.88581 38.5587
3 2.88581 24.4176 38.5587
3 29.9822 8.45036 38.5587
3 8.45036 29.9822 29.3223
3 24.4176 2.88581 29.3223
3 29.9822 24.4176 29.3223
3 2.88581 8.45036 29.3223
3 25.0421 29.3577 30.4129
3 29.3577 7.82587 30.4129
3 3.5103 25.0421 30.4129
3 25.0421 3.5103 37.4681
3 7.82587 29.3577 37.4681
3 3.5103 7.82587 37.4681
3 29.3577 25.0421 37.4681
3 25.0421 29.3577 37.4681
3 7.82587 3.5103 37.4681
3 3.5103 25.0421 37.4681
3 29.3577 7.82587 37.4681
3 7.82587 29.3577 30.4129
3 25.0421 3.5103 30.4129
3 29.3577 25.0421 30.4129
3 3.5103 7.82587 30.4129
4 25.8638 29.6469 30.7365
4 29.6469 7.00417 30.7365
4 3.22106 25.8638 30.7365
4 25.8638 3.22106 37.1445
4 7.00417 29.6469 37.1445
4 3.22106 7.00417 37.1445
4 29.6469 25.8638 37.1445
4 25.8638 29.6469 37.1445
4 7.00417 3.22106 37.1445
4 3.22106 25.8638 37.1445
4 29.6469 7.00417 37.1445
4 7.00417 29.6469 30.7365
4 25.8638 3.22106 30.7365
4 29.6469 25.8638 30.7365
4 3.22106 7.00417 30.7365
3 24.3453 28.2468 31.0103
3 28.2468 8.52267 31.0103
3 4.62124 24.3453 31.0103
3 24.3453 4.62124 36.8707
3 8.52267 28.2468 36.8707
3 4.62124 8.52267 36.8707
3 28.2468 24.3453 36.8707
3 24.3453 28.2468 36.8707
3 8.52267 4.62124 36.8707
3 4.62124 24.3453 36.8707
3 28.2468 8.52267 36.8707
3 8.52267 28.2468 31.0103
3 24.3453 4.62124 31.0103
3 28.2468 24.3453 31.0103
3 4.62124 8.52267 31.0103
3 23.07 27.8984 30.5329
3 27.8984 9.79795 30.5329
3 4.96964 23.07 30.5329
3 23.07 4.96964 37.3481
3 9.79795 27.8984 37.3481
3 4.96964 9.79795 37.3481
3 27.8984 23.07 37.3481
3 23.07 27.8984 37.3481
3 9.79795 4.96964 37.3481
3 4.96964 23.07 37.3481
3 27.8984 9.79795 37.3481
3 9.79795 27.8984 30.5329
3 23.07 4.96964 30.5329
3 27.8984 23.07 30.5329
3 4.96964 9.79795 30.5329
4 22.6132 27.2048 30.9515
4 27.2048 10.2548 30.9515
4 5.66316 22.6132 30.9515
4 22.6132 5.66316 36.9295
4 10.2548 27.2048 36.9295
4 5.66316 10.2548 36.9295
4 27.2048 22.6132 36.9295
4 22.6132 27.2048 36.9295
4 10.2548 5.66316 36.9295
4 5.66316 22.6132 36.9295
4 27.2048 10.2548 36.9295
4 10.2548 27.2048 30.9515
4 22.6132 5.66316 30.9515
4 27.2048 22.6132 30.9515
4 5.66316 10.2548 30.9515
3 22.462 28.5327 29.4717
3 28.5327 10.406 29.4717
3 4.33529 22.462 29.4717
3 22.462 4.33529 38.4093
3 10.406 28.5327 38.4093
3 4.33529 10.406 38.4093
3 28.5327 22.462 38.4093
3 22.462 28.5327 38.4093
3 10.406 4.33529 38.4093
3 4.33529 22.462 38.4093
3 28.5327 10.406 38.4093
3 10.406 28.5327 29.4717
3 22.462 4.33529 29.4717
3 28.5327 22.462 29.4717
3 4.33529 10.406 29.4717
3 23.1686 29.5976 28.8879
3 29.5976 9.69935 28.8879
3 3.27037 23.1686 28.8879
3 23.1686 3.27037 38.9931
3 9.69935 29.5976 38.9931
3 3.27037 9.69935 38.9931
3 29.5976 23.1686 38.9931
3 23.1686 29.5976 38.9931
3 9.69935 3.27037 38.9931
3 3.27037 23.1686 38.9931
3 29.5976 9.69935 38.9931
3 9.69935 29.5976 28.8879
3 23.1686 3.27037 28.8879
3 29.5976 23.1686 28.8879
3 3.27037 9.69935 28.8879